[Molden Format]
[Title]
 Molden file created by orca_2mkl for BaseName=dimer

[Atoms] AU
C    1   6          0.0000000000         0.0000000000         1.2546817769 
H    2   1          0.0000000000         1.7470820464         2.3344542823 
H    3   1          0.0000000000        -1.7470820464         2.3344542823 
C    4   6          0.0000000000         0.0000000000        -1.2546817769 
H    5   1          0.0000000000        -1.7470820464        -2.3344542823 
H    6   1          0.0000000000         1.7470820464        -2.3344542823 
C    7   6          0.0000000000        -0.8576751094         7.0208872788 
H    8   1          0.0000000000        -1.6176658340         8.9289277503 
H    9   1          0.0000000000        -2.2244210664         5.4878478787 
C   10   6          0.0000000000         1.6135655629         6.5851408854 
H   11   1          0.0000000000         2.3735562876         4.6771004140 
H   12   1          0.0000000000         2.9803115200         8.1181802856 
[GTO]
  1 0
s   5 1.0 
     1238.4016938000         0.8208956682
      186.2900499200         1.4766449896
       42.2511763460         2.1526124058
       11.6765579320         2.1081722461
        3.5930506482         0.8290999933
s   1 1.0 
        0.4024514736         0.3601183351
s   1 1.0 
        0.1309018267         0.1551027052
p   3 1.0 
        9.4680970621         1.3467645142
        2.0103545142         1.0678070931
        0.5477100471         0.5108735714
p   1 1.0 
        0.1526861379         0.1360471976
d   1 1.0 
        0.8000000000         1.9292013661

  2 0
s   3 1.0 
       13.0107010000         0.1634903809
        1.9622572000         0.2773515510
        0.4445379600         0.3157501452
s   1 1.0 
        0.1219496200         0.1470772262
p   1 1.0 
        0.8000000000         1.0784563492

  3 0
s   3 1.0 
       13.0107010000         0.1634903809
        1.9622572000         0.2773515510
        0.4445379600         0.3157501452
s   1 1.0 
        0.1219496200         0.1470772262
p   1 1.0 
        0.8000000000         1.0784563492

  4 0
s   5 1.0 
     1238.4016938000         0.8208956682
      186.2900499200         1.4766449896
       42.2511763460         2.1526124058
       11.6765579320         2.1081722461
        3.5930506482         0.8290999933
s   1 1.0 
        0.4024514736         0.3601183351
s   1 1.0 
        0.1309018267         0.1551027052
p   3 1.0 
        9.4680970621         1.3467645142
        2.0103545142         1.0678070931
        0.5477100471         0.5108735714
p   1 1.0 
        0.1526861379         0.1360471976
d   1 1.0 
        0.8000000000         1.9292013661

  5 0
s   3 1.0 
       13.0107010000         0.1634903809
        1.9622572000         0.2773515510
        0.4445379600         0.3157501452
s   1 1.0 
        0.1219496200         0.1470772262
p   1 1.0 
        0.8000000000         1.0784563492

  6 0
s   3 1.0 
       13.0107010000         0.1634903809
        1.9622572000         0.2773515510
        0.4445379600         0.3157501452
s   1 1.0 
        0.1219496200         0.1470772262
p   1 1.0 
        0.8000000000         1.0784563492

  7 0
s   5 1.0 
     1238.4016938000         0.8208956682
      186.2900499200         1.4766449896
       42.2511763460         2.1526124058
       11.6765579320         2.1081722461
        3.5930506482         0.8290999933
s   1 1.0 
        0.4024514736         0.3601183351
s   1 1.0 
        0.1309018267         0.1551027052
p   3 1.0 
        9.4680970621         1.3467645142
        2.0103545142         1.0678070931
        0.5477100471         0.5108735714
p   1 1.0 
        0.1526861379         0.1360471976
d   1 1.0 
        0.8000000000         1.9292013661

  8 0
s   3 1.0 
       13.0107010000         0.1634903809
        1.9622572000         0.2773515510
        0.4445379600         0.3157501452
s   1 1.0 
        0.1219496200         0.1470772262
p   1 1.0 
        0.8000000000         1.0784563492

  9 0
s   3 1.0 
       13.0107010000         0.1634903809
        1.9622572000         0.2773515510
        0.4445379600         0.3157501452
s   1 1.0 
        0.1219496200         0.1470772262
p   1 1.0 
        0.8000000000         1.0784563492

 10 0
s   5 1.0 
     1238.4016938000         0.8208956682
      186.2900499200         1.4766449896
       42.2511763460         2.1526124058
       11.6765579320         2.1081722461
        3.5930506482         0.8290999933
s   1 1.0 
        0.4024514736         0.3601183351
s   1 1.0 
        0.1309018267         0.1551027052
p   3 1.0 
        9.4680970621         1.3467645142
        2.0103545142         1.0678070931
        0.5477100471         0.5108735714
p   1 1.0 
        0.1526861379         0.1360471976
d   1 1.0 
        0.8000000000         1.9292013661

 11 0
s   3 1.0 
       13.0107010000         0.1634903809
        1.9622572000         0.2773515510
        0.4445379600         0.3157501452
s   1 1.0 
        0.1219496200         0.1470772262
p   1 1.0 
        0.8000000000         1.0784563492

 12 0
s   3 1.0 
       13.0107010000         0.1634903809
        1.9622572000         0.2773515510
        0.4445379600         0.3157501452
s   1 1.0 
        0.1219496200         0.1470772262
p   1 1.0 
        0.8000000000         1.0784563492

[5D]
[7F]
[9G]
[MO]
 Sym=     1a
 Ene= -1.03621812426952E+01
 Spin= Alpha
 Occup= 2.000000
  1      -0.001592630444
  2      -0.000428162228
  3      -0.001459398876
  4      -0.000000001150
  5       0.000151107075
  6      -0.000259014023
  7       0.000000001239
  8      -0.002182141881
  9       0.003227167916
 10      -0.000095474048
 11       0.000000001107
 12      -0.000020011719
 13      -0.000120603011
 14       0.000000000379
 15      -0.000240992672
 16       0.002648765074
 17       0.000000000176
 18       0.000054467282
 19      -0.000089666669
 20      -0.000411088396
 21      -0.003415999834
 22       0.000000001513
 23      -0.000003380045
 24       0.000098542819
 25       0.002604982531
 26       0.000288374069
 27       0.003280274897
 28       0.000000014143
 29       0.000024254191
 30       0.000098607957
 31      -0.000000007412
 32       0.000633976509
 33       0.001498414324
 34       0.000048913371
 35       0.000000000091
 36       0.000050170937
 37      -0.000026959370
 38      -0.000000000048
 39      -0.000008287672
 40       0.000326605656
 41      -0.000000000915
 42       0.000005678076
 43      -0.000024189794
 44      -0.000066235695
 45      -0.000389753600
 46      -0.000000000804
 47      -0.000015279936
 48      -0.000038315813
 49       0.983987020320
 50       0.041322954497
 51      -0.028181666164
 52      -0.000000002366
 53      -0.000709919319
 54       0.000016053846
 55      -0.000000001499
 56       0.000283489764
 57       0.001349367286
 58       0.001025443361
 59       0.000000000360
 60      -0.000103386378
 61      -0.001848037993
 62      -0.000000000172
 63      -0.003646015310
 64       0.005872468950
 65       0.000000000097
 66      -0.000693102366
 67       0.002027336642
 68      -0.003399708279
 69       0.008647332496
 70       0.000000000511
 71      -0.001174043921
 72      -0.001639814063
 73       0.105758708772
 74       0.000285456756
 75       0.007420067532
 76      -0.000000002646
 77       0.002159547623
 78      -0.000453710295
 79      -0.000000001144
 80      -0.000181295820
 81      -0.000422557937
 82      -0.000012150416
 83       0.000000000339
 84       0.000175645688
 85       0.000761833329
 86       0.000000000699
 87      -0.000037104394
 88      -0.003106883928
 89      -0.000000002780
 90      -0.000423892753
 91       0.000119060855
 92      -0.000210031235
 93      -0.000334076930
 94      -0.000000000191
 95      -0.000528977996
 96       0.000115911758
 Sym=     1a
 Ene= -1.03603550634353E+01
 Spin= Alpha
 Occup= 2.000000
  1       0.095336149967
  2       0.000047991376
  3       0.002893768354
  4      -0.000000000365
  5       0.000017385471
  6       0.002127918535
  7       0.000000002151
  8      -0.000787565822
  9      -0.000237122363
 10      -0.000684772561
 11       0.000000000610
 12      -0.000032860625
 13       0.000422068786
 14      -0.000000000678
 15      -0.000171208587
 16       0.003302549967
 17       0.000000000564
 18      -0.000148053499
 19      -0.000575206139
 20      -0.000276989234
 21       0.000666171388
 22      -0.000000001136
 23       0.000073697537
 24      -0.000540241857
 25       0.985070139942
 26       0.041076333138
 27      -0.025276517778
 28      -0.000000000028
 29       0.000020513215
 30      -0.000658428141
 31      -0.000000001173
 32       0.000135963635
 33      -0.000108833498
 34       0.001129537630
 35      -0.000000000042
 36       0.000014611074
 37      -0.001856546645
 38       0.000000000023
 39      -0.003577275175
 40       0.006074062910
 41       0.000000000050
 42      -0.001897235303
 43      -0.000971509536
 44      -0.003560873527
 45       0.005866473413
 46      -0.000000000019
 47       0.001898719379
 48      -0.000973318464
 49      -0.002665858915
 50       0.000082162681
 51       0.001727549985
 52       0.000000074200
 53       0.000088348678
 54      -0.000089476957
 55      -0.000000107246
 56      -0.000184940540
 57       0.000269843788
 58       0.000045217059
 59       0.000000045505
 60      -0.000032400347
 61       0.000032438956
 62       0.000000034519
 63      -0.000177829359
 64      -0.000394404871
 65       0.000000001142
 66       0.000005542263
 67       0.000046350189
 68       0.000119981692
 69      -0.001076431062
 70       0.000000193738
 71      -0.000032998042
 72      -0.000004712091
 73       0.001589841137
 74       0.000280709172
 75       0.001304172165
 76       0.000000038194
 77      -0.000122631580
 78      -0.000110921567
 79       0.000000018198
 80       0.001554540328
 81      -0.000299412196
 82       0.000062414647
 83      -0.000000005052
 84       0.000020997914
 85       0.000007216517
 86       0.000000008237
 87       0.000093798947
 88      -0.003463513742
 89      -0.000000008127
 90       0.000036516266
 91      -0.000178431473
 92      -0.000289345490
 93      -0.000448622979
 94      -0.000000006388
 95      -0.000016724253
 96       0.000085619371
 Sym=     1a
 Ene= -1.03585598976519E+01
 Spin= Alpha
 Occup= 2.000000
  1      -0.005054702342
  2      -0.000715526991
  3       0.000631198062
  4       0.000000000082
  5      -0.000216661020
  6      -0.000240658095
  7      -0.000000000254
  8       0.002723398593
  9       0.002574083263
 10      -0.000050228549
 11      -0.000000000065
 12      -0.000005680685
 13      -0.000079140140
 14      -0.000000000114
 15      -0.000240421432
 16      -0.006734228755
 17       0.000000000298
 18      -0.000147646427
 19       0.000146643389
 20      -0.000153078029
 21       0.002039591428
 22      -0.000000000268
 23      -0.000028316583
 24      -0.000178674754
 25      -0.001419292001
 26       0.000025216240
 27       0.002396074510
 28      -0.000000001796
 29      -0.000028845836
 30       0.000064468471
 31       0.000000001105
 32      -0.000740962626
 33       0.001265218928
 34       0.000045874618
 35       0.000000000311
 36      -0.000062160273
 37      -0.000022517788
 38      -0.000000000130
 39      -0.000048618755
 40      -0.000351114601
 41       0.000000000152
 42       0.000030458218
 43      -0.000029697114
 44       0.000028370417
 45       0.000509428787
 46       0.000000000066
 47      -0.000011906563
 48      -0.000002128641
 49      -0.105081415160
 50      -0.008701160175
 51       0.013017540346
 52      -0.000000001796
 53      -0.002116731503
 54       0.000336624476
 55      -0.000000001022
 56       0.000277997570
 57      -0.001134760546
 58      -0.000204486608
 59      -0.000000000857
 60       0.000079424698
 61       0.001219388860
 62      -0.000000000281
 63       0.000680388867
 64      -0.001408165172
 65      -0.000000000653
 66       0.000686085428
 67      -0.000505464396
 68       0.000676660428
 69      -0.003695253029
 70      -0.000000000185
 71       0.000723430680
 72       0.000331655438
 73       0.983873809304
 74       0.042565354652
 75      -0.033149797583
 76      -0.000000001246
 77       0.000243950842
 78      -0.000151629806
 79      -0.000000000247
 80      -0.000326369500
 81       0.002883062820
 82       0.000964559048
 83      -0.000000000538
 84       0.000016531855
 85      -0.002054981847
 86       0.000000000221
 87      -0.003451767880
 88       0.013641093123
 89      -0.000000000657
 90       0.000660812055
 91      -0.001928419123
 92      -0.003665309096
 93       0.006005653622
 94      -0.000000000047
 95       0.001558704418
 96       0.001640690624
 Sym=     1a
 Ene= -1.03563131070618E+01
 Spin= Alpha
 Occup= 2.000000
  1       0.984929702515
  2       0.042781393633
  3      -0.037850172840
  4       0.000000000242
  5       0.000014028106
  6       0.000241112345
  7      -0.000000000425
  8      -0.001204203056
  9       0.001595415925
 10       0.001184134718
 11      -0.000000000102
 12      -0.000036982056
 13      -0.001829528184
 14      -0.000000000034
 15      -0.003683681789
 16       0.012824844340
 17       0.000000000119
 18       0.001762715131
 19       0.000998100740
 20      -0.003818199184
 21       0.009062955828
 22       0.000000000206
 23      -0.001827145527
 24       0.001126238986
 25      -0.094681938308
 26      -0.008155824220
 27       0.015969202610
 28       0.000000000154
 29       0.000016847484
 30      -0.002099026354
 31       0.000000000348
 32       0.000295526375
 33       0.002501090278
 34      -0.000863487072
 35      -0.000000000031
 36       0.000027739616
 37       0.000744307810
 38      -0.000000000004
 39       0.000646815292
 40      -0.001837835390
 41       0.000000000028
 42       0.000389261437
 43       0.000661689445
 44       0.000638793882
 45      -0.002205072829
 46      -0.000000000124
 47      -0.000394572134
 48       0.000655712886
 49       0.001374977883
 50      -0.000419250352
 51       0.001729595671
 52      -0.000000007018
 53       0.000023313254
 54       0.000146145186
 55       0.000000011129
 56      -0.000903693011
 57      -0.000755325888
 58      -0.000003004232
 59      -0.000000004756
 60       0.000061005954
 61      -0.000072027378
 62      -0.000000003643
 63       0.000000279834
 64       0.000129721758
 65      -0.000000000048
 66       0.000105474560
 67      -0.000009692853
 68      -0.000083072442
 69      -0.003146446183
 70      -0.000000020354
 71       0.000063215389
 72      -0.000082479580
 73       0.005153852425
 74      -0.000370677577
 75       0.003473902751
 76      -0.000000003537
 77       0.000010101976
 78       0.000179774902
 79      -0.000000002164
 80       0.000359995180
 81      -0.001444219246
 82       0.000019236297
 83       0.000000000693
 84      -0.000097552929
 85      -0.000103540849
 86      -0.000000000825
 87      -0.000010184174
 88      -0.005916536382
 89       0.000000001171
 90      -0.000244425742
 91      -0.000141242972
 92      -0.000002134620
 93       0.000226781939
 94       0.000000000530
 95      -0.000087336650
 96       0.000012168984
 Sym=     1a
 Ene= -8.86882692639872E-01
 Spin= Alpha
 Occup= 2.000000
  1       0.131901026445
  2      -0.248081581194
  3      -0.071953804916
  4       0.000000109078
  5      -0.004226065794
  6       0.047069477505
  7       0.000000004498
  8      -0.000765204385
  9      -0.000990699372
 10      -0.008103168250
 11       0.000000007463
 12      -0.000494777650
 13       0.001618635694
 14       0.000000005616
 15      -0.094473868998
 16      -0.005210909730
 17      -0.000000073622
 18       0.008549619678
 19       0.003740431178
 20      -0.080582519672
 21      -0.008018373753
 22      -0.000000044006
 23      -0.008654940875
 24       0.004650270799
 25       0.113038936966
 26      -0.214517329801
 27      -0.070266060326
 28       0.000000063621
 29      -0.000660069240
 30      -0.068386560220
 31      -0.000000011726
 32      -0.001073580019
 33      -0.018780664544
 34      -0.008253186676
 35      -0.000000025346
 36      -0.000121755297
 37       0.000744452770
 38       0.000000003862
 39      -0.056592247376
 40      -0.009618931915
 41       0.000000007909
 42      -0.006755838731
 43      -0.005154712820
 44      -0.056770389778
 45      -0.009102563205
 46       0.000000034057
 47       0.006807393769
 48      -0.005175237650
 49       0.151631516536
 50      -0.286669449057
 51      -0.078750387586
 52      -0.000000034050
 53      -0.082269246980
 54       0.021907593806
 55       0.000000004450
 56      -0.018187871370
 57       0.009508911858
 58       0.003445576176
 59       0.000000015449
 60       0.002928632715
 61       0.009270132310
 62       0.000000016126
 63      -0.075912699118
 64      -0.015215825938
 65      -0.000000008745
 66      -0.005115692980
 67       0.010214157063
 68      -0.086973856168
 69      -0.015294867649
 70       0.000000137187
 71      -0.009104520147
 72      -0.006907444479
 73       0.155732914854
 74      -0.294062186669
 75      -0.079457833730
 76      -0.000000060116
 77       0.081397831156
 78      -0.002470434079
 79      -0.000000150106
 80       0.020656928266
 81       0.000097566585
 82       0.002960223772
 83       0.000000069077
 84       0.002903588213
 85       0.009132877993
 86      -0.000000035199
 87      -0.103257758992
 88      -0.022723369065
 89       0.000000485916
 90       0.006917524356
 91      -0.008893491056
 92      -0.077457351923
 93      -0.014398449416
 94       0.000000018916
 95       0.008321347050
 96       0.008239810182
 Sym=     1a
 Ene= -8.68874095100858E-01
 Spin= Alpha
 Occup= 2.000000
  1       0.153478797038
  2      -0.293134834942
  3      -0.091286184334
  4      -0.000000110455
  5       0.001208026075
  6       0.099764234964
  7       0.000000003223
  8       0.000439101175
  9       0.030235309229
 10      -0.010611927056
 11      -0.000000006541
 12       0.000121774769
 13       0.000851536085
 14       0.000000000727
 15      -0.071390615250
 16      -0.018279493794
 17       0.000000032321
 18       0.008785691849
 19       0.007284389426
 20      -0.074190680799
 21      -0.013446875814
 22       0.000000051749
 23      -0.008774425155
 24       0.007388167150
 25       0.164031428975
 26      -0.313275780375
 27      -0.077177730721
 28      -0.000000056912
 29       0.000032598596
 30      -0.088742552046
 31      -0.000000013034
 32       0.000658448314
 33      -0.011469257621
 34      -0.010338067630
 35       0.000000016246
 36       0.000022014212
 37       0.001174601430
 38      -0.000000011753
 39      -0.087000013940
 40      -0.014200837798
 41      -0.000000004435
 42      -0.009922131955
 43      -0.007626392667
 44      -0.087268671730
 45      -0.014568882979
 46       0.000000022563
 47       0.009914403257
 48      -0.007650082776
 49      -0.128341510861
 50       0.246465982731
 51       0.068704987769
 52      -0.000000002302
 53       0.071973800096
 54      -0.008908745692
 55      -0.000000160268
 56       0.012488471907
 57       0.001030407055
 58      -0.003173943845
 59       0.000000024188
 60      -0.002380517308
 61      -0.007437953504
 62       0.000000019557
 63       0.068657715153
 64       0.009710655317
 65       0.000000002430
 66       0.004494757838
 67      -0.008623821355
 68       0.062480922271
 69       0.011537240479
 70       0.000000161123
 71       0.006807782277
 72       0.006937488951
 73      -0.125487850548
 74       0.240942645263
 75       0.066775409321
 76       0.000000014927
 77      -0.072838921273
 78       0.018598003986
 79       0.000000227414
 80      -0.014480080627
 81       0.006821578967
 82      -0.003599884085
 83      -0.000000125526
 84      -0.002244950730
 85      -0.007558419741
 86       0.000000040424
 87       0.054646625150
 88       0.017025171664
 89      -0.000000617668
 90      -0.003857738116
 91       0.008911431440
 92       0.066962490824
 93       0.009657543733
 94      -0.000000002386
 95      -0.007039651885
 96      -0.006403745181
 Sym=     1a
 Ene= -7.03571838378070E-01
 Spin= Alpha
 Occup= 2.000000
  1       0.098538565204
  2      -0.198151912272
  3      -0.048975344472
  4      -0.000000044490
  5      -0.041644429509
  6      -0.145774254931
  7       0.000000072622
  8      -0.010019603590
  9      -0.057575464298
 10       0.005589553867
 11      -0.000000030328
 12      -0.002045910166
 13       0.004370335002
 14       0.000000023497
 15      -0.197153799948
 16      -0.038555489474
 17      -0.000000032014
 18       0.011537274956
 19      -0.000468578505
 20      -0.104531338309
 21      -0.025633597625
 22       0.000000158167
 23      -0.010185969375
 24       0.002615162885
 25      -0.120476415460
 26       0.243888255782
 27       0.057095630685
 28       0.000000104360
 29      -0.013247593012
 30      -0.087650550546
 31       0.000000064353
 32      -0.006155850138
 33      -0.040324744666
 34      -0.003506544821
 35      -0.000000040759
 36      -0.001111040642
 37      -0.003336203783
 38       0.000000004474
 39       0.136894581372
 40       0.033146571611
 41       0.000000007493
 42       0.011574097589
 43       0.005031364899
 44       0.125526568921
 45       0.032646025418
 46       0.000000031619
 47      -0.010983488724
 48       0.004248227915
 49      -0.116373133417
 50       0.237658299171
 51       0.070524587397
 52      -0.000000038205
 53      -0.056319374638
 54       0.053199025162
 55      -0.000000276543
 56      -0.026018565926
 57       0.024987694785
 58       0.002690231610
 59       0.000000014634
 60       0.002071174066
 61       0.000131602648
 62       0.000000012804
 63       0.140729416140
 64       0.029881831000
 65      -0.000000009031
 66       0.003528534633
 67      -0.011891606320
 68       0.088913236052
 69       0.026324655961
 70       0.000000126669
 71       0.004514975002
 72       0.009793577668
 73       0.069206175563
 74      -0.137639941163
 75      -0.026102703186
 76      -0.000000035841
 77      -0.116653963032
 78       0.089856447095
 79       0.000000302341
 80      -0.030303439515
 81       0.024841608864
 82      -0.006858132878
 83      -0.000000182012
 84      -0.001683675824
 85      -0.003568029901
 86       0.000000066890
 87      -0.186816316021
 88      -0.058404030078
 89      -0.000001053009
 90       0.004981798090
 91      -0.006428079771
 92      -0.066889415570
 93      -0.020966246374
 94      -0.000000011887
 95       0.001501205842
 96       0.007608822732
 Sym=     1a
 Ene= -6.86952764155657E-01
 Spin= Alpha
 Occup= 2.000000
  1       0.093191503770
  2      -0.189451878627
  3      -0.039742045098
  4      -0.000000004552
  5       0.036816549733
  6      -0.102893915632
  7      -0.000000031687
  8       0.007514320823
  9      -0.049762070256
 10       0.004439910288
 11       0.000000025205
 12       0.001596719762
 13       0.003426246027
 14      -0.000000029574
 15      -0.078769477405
 16      -0.027171244631
 17       0.000000040197
 18       0.008676824380
 19       0.003207982098
 20      -0.155691476937
 21      -0.040699785511
 22      -0.000000176194
 23      -0.010187015206
 24       0.001537038625
 25      -0.094519963777
 26       0.192204600235
 27       0.037755362177
 28      -0.000000075144
 29       0.013105948608
 30      -0.096452760186
 31      -0.000000078353
 32       0.006834497462
 33      -0.042995257916
 34      -0.004111341656
 35       0.000000034436
 36       0.000924792139
 37      -0.003050312800
 38      -0.000000009884
 39       0.108981927247
 40       0.030648440508
 41      -0.000000002984
 42       0.009317409862
 43       0.003138498886
 44       0.120950005410
 45       0.031166461570
 46       0.000000028284
 47      -0.009885018554
 48       0.003891539898
 49       0.102282937601
 50      -0.206703631444
 51      -0.052668866539
 52      -0.000000029193
 53       0.152710020540
 54       0.018349372768
 55       0.000000028290
 56       0.049412698058
 57       0.009058686897
 58      -0.006876034181
 59       0.000000006253
 60      -0.002894324783
 61      -0.003218029735
 62       0.000000010369
 63      -0.116355715907
 64      -0.034901163856
 65      -0.000000017202
 66      -0.000248569467
 67       0.011190788634
 68      -0.182099376123
 69      -0.051664121672
 70       0.000000089793
 71      -0.007601137484
 72      -0.008767492537
 73      -0.133299683630
 74       0.273230367115
 75       0.074183722281
 76      -0.000000065865
 77       0.108409251248
 78       0.022921751370
 79      -0.000000226964
 80       0.044185177101
 81       0.008743623667
 82       0.004661869681
 83       0.000000096757
 84       0.001152581496
 85       0.001350144733
 86      -0.000000046969
 87       0.114026138614
 88       0.042718836923
 89       0.000000782172
 90      -0.000688730706
 91       0.012269806938
 92       0.172441774706
 93       0.042388336780
 94       0.000000027302
 95      -0.008260111160
 96      -0.012235510703
 Sym=     1a
 Ene= -5.89548102485154E-01
 Spin= Alpha
 Occup= 2.000000
  1       0.063255724382
  2      -0.133782214866
  3      -0.076642650743
  4       0.000000067905
  5       0.185060375372
  6       0.096265526542
  7      -0.000000008663
  8       0.055198290710
  9       0.048340445201
 10      -0.001822936928
 11       0.000000023220
 12       0.000848797209
 13      -0.001015565513
 14       0.000000014741
 15       0.140494982603
 16       0.059412807780
 17      -0.000000131993
 18      -0.001224703544
 19       0.002439934731
 20      -0.123599007993
 21      -0.039073904046
 22      -0.000000046803
 23      -0.005762659278
 24       0.010171140888
 25      -0.028490808964
 26       0.059323338220
 27       0.060887244237
 28      -0.000000085899
 29       0.149908663990
 30      -0.191825653625
 31      -0.000000066051
 32       0.054651404848
 33      -0.048405224337
 34      -0.006460591133
 35       0.000000025495
 36       0.002521906009
 37      -0.003866566174
 38      -0.000000014814
 39       0.014720149853
 40       0.007246467467
 41      -0.000000010661
 42       0.004512919083
 43      -0.004967061261
 44       0.194951142573
 45       0.059431167505
 46       0.000000028338
 47      -0.010348101132
 48       0.003814173289
 49      -0.015700057035
 50       0.032884784033
 51       0.019628079618
 52       0.000000142089
 53      -0.092770288802
 54      -0.173112156991
 55      -0.000000088364
 56      -0.034948108801
 57      -0.067117057576
 58       0.003114926460
 59       0.000000063348
 60      -0.002684830558
 61       0.001747562481
 62       0.000000059238
 63      -0.071474896451
 64      -0.018375833315
 65       0.000000013624
 66      -0.004847418065
 67       0.001709804399
 68       0.143390737803
 69       0.035724845911
 70       0.000000485005
 71       0.006059827790
 72       0.005897007868
 73       0.028636246530
 74      -0.061022569336
 75      -0.013351900039
 76       0.000000109918
 77      -0.030882916868
 78      -0.245194162501
 79       0.000000107124
 80      -0.008763641432
 81      -0.079425186328
 82       0.001229403889
 83      -0.000000006572
 84      -0.000752334286
 85       0.000531571020
 86      -0.000000012150
 87       0.171676245361
 88       0.037752313260
 89       0.000000102526
 90      -0.006471755444
 91       0.000041282892
 92      -0.178162100968
 93      -0.060321444640
 94       0.000000009911
 95       0.009306807212
 96       0.005193398921
 Sym=     1a
 Ene= -5.76128338670614E-01
 Spin= Alpha
 Occup= 2.000000
  1      -0.033967532228
  2       0.072836571143
  3       0.038483403621
  4      -0.000000143036
  5       0.260240544234
  6      -0.080732293359
  7       0.000000043510
  8       0.087830597684
  9      -0.040118279480
 10       0.001645448434
 11      -0.000000023945
 12      -0.001372174356
 13       0.000891589392
 14       0.000000025102
 15       0.151992146767
 16       0.055948531579
 17      -0.000000010219
 18      -0.004644558797
 19      -0.009129468392
 20      -0.181358357730
 21      -0.066806149570
 22       0.000000178257
 23      -0.004609664553
 24       0.002732821276
 25       0.013205009508
 26      -0.027297818540
 27      -0.037554969341
 28       0.000000044226
 29       0.253929326881
 30       0.129669926608
 31      -0.000000001121
 32       0.087814966543
 33       0.032153535199
 34       0.004141450205
 35      -0.000000013390
 36       0.002150173055
 37       0.002495588210
 38      -0.000000002146
 39      -0.224339539101
 40      -0.073239305017
 41       0.000000004717
 42      -0.009505909476
 43      -0.006779916351
 44       0.092270639718
 45       0.029155437552
 46       0.000000066116
 47      -0.000268802503
 48       0.008139051105
 49      -0.021314971294
 50       0.045385718614
 51       0.014385919483
 52      -0.000000043125
 53      -0.004455626308
 54       0.200196996837
 55      -0.000000166454
 56      -0.005395180012
 57       0.061179196780
 58       0.001388677887
 59       0.000000011919
 60      -0.001376871027
 61       0.001008273544
 62       0.000000006788
 63       0.164133316953
 64       0.058445441159
 65       0.000000014035
 66       0.005002301078
 67      -0.007465111493
 68      -0.112354871403
 69      -0.037915515306
 70       0.000000053546
 71      -0.005839856456
 72       0.002923541404
 73       0.022026971351
 74      -0.046316572876
 75      -0.020650254683
 76      -0.000000130538
 77       0.011457728059
 78       0.118701099430
 79       0.000000287283
 80       0.001510384664
 81       0.057149328123
 82       0.001127676135
 83      -0.000000193929
 84      -0.004094892420
 85       0.000651224729
 86       0.000000054647
 87      -0.066595935810
 88      -0.014245348957
 89      -0.000001050737
 90       0.002874366003
 91      -0.005863680610
 92       0.044044384329
 93       0.008034584115
 94      -0.000000003371