monomer optimized                                                       
SP        RwB97XD                                                     Gen                 
Number of atoms                            I               12
Info1-9                                    I   N=           9
           5           5           0           0           0         111
           1          18       -5802
Full Title                                 C   N=           2
monomer optimized       
Route                                      C   N=           7
#P wB97XD/ChkBasis IOp(3/33=1,3/32=2,5/33=3) NoSymmetry Gues
s=Read Geom=AllCheck    
Charge                                     I                0
Multiplicity                               I                1
Number of electrons                        I               32
Number of alpha electrons                  I               16
Number of beta electrons                   I               16
Number of basis functions                  I               76
Number of independent functions            I               76
Number of point charges in /Mol/           I                0
Number of translation vectors              I                0
Atomic numbers                             I   N=          12
           6           1           1           6           1           1
           6           1           1           6           1           1
Nuclear charges                            R   N=          12
  6.00000000E+00  1.00000000E+00  1.00000000E+00  6.00000000E+00  1.00000000E+00
  1.00000000E+00  6.00000000E+00  1.00000000E+00  1.00000000E+00  6.00000000E+00
  1.00000000E+00  1.00000000E+00
Current cartesian coordinates              R   N=          36
  0.00000000E+00  0.00000000E+00  1.25468178E+00  0.00000000E+00  1.74708205E+00
  2.33445428E+00  0.00000000E+00 -1.74708205E+00  2.33445428E+00  0.00000000E+00
  0.00000000E+00 -1.25468178E+00  0.00000000E+00 -1.74708205E+00 -2.33445428E+00
  0.00000000E+00  1.74708205E+00 -2.33445428E+00  0.00000000E+00 -8.57675109E-01
  7.02088727E+00  0.00000000E+00 -1.61766583E+00  8.92892775E+00  0.00000000E+00
 -2.22442107E+00  5.48784788E+00  0.00000000E+00  1.61356556E+00  6.58514088E+00
  0.00000000E+00  2.37355629E+00  4.67710041E+00  0.00000000E+00  2.98031152E+00
  8.11818028E+00
Number of symbols in /Mol/                 I                0
Force Field                                I                0
Atom Types                                 C   N=          12
                                                            
                                                            
                        
Int Atom Types                             I   N=          12
           0           0           0           0           0           0
           0           0           0           0           0           0
MM charges                                 R   N=          12
  0.00000000E+00  0.00000000E+00  0.00000000E+00  0.00000000E+00  0.00000000E+00
  0.00000000E+00  0.00000000E+00  0.00000000E+00  0.00000000E+00  0.00000000E+00
  0.00000000E+00  0.00000000E+00
Integer atomic weights                     I   N=          12
          12           1           1          12           1           1
          12           1           1          12           1           1
Real atomic weights                        R   N=          12
  1.20000000E+01  1.00782504E+00  1.00782504E+00  1.20000000E+01  1.00782504E+00
  1.00782504E+00  1.20000000E+01  1.00782504E+00  1.00782504E+00  1.20000000E+01
  1.00782504E+00  1.00782504E+00
Atom fragment info                         I   N=          12
           0           0           0           0           0           0
           0           0           0           0           0           0
Atom residue num                           I   N=          12
           0           0           0           0           0           0
           0           0           0           0           0           0
Nuclear spins                              I   N=          12
           0           1           1           0           1           1
           0           1           1           0           1           1
Nuclear ZEff                               R   N=          12
 -3.60000000E+00 -1.00000000E+00 -1.00000000E+00 -3.60000000E+00 -1.00000000E+00
 -1.00000000E+00 -3.60000000E+00 -1.00000000E+00 -1.00000000E+00 -3.60000000E+00
 -1.00000000E+00 -1.00000000E+00
Nuclear ZNuc                               R   N=          12
  6.00000000E+00  1.00000000E+00  1.00000000E+00  6.00000000E+00  1.00000000E+00
  1.00000000E+00  6.00000000E+00  1.00000000E+00  1.00000000E+00  6.00000000E+00
  1.00000000E+00  1.00000000E+00
Nuclear QMom                               R   N=          12
  0.00000000E+00  0.00000000E+00  0.00000000E+00  0.00000000E+00  0.00000000E+00
  0.00000000E+00  0.00000000E+00  0.00000000E+00  0.00000000E+00  0.00000000E+00
  0.00000000E+00  0.00000000E+00
Nuclear GFac                               R   N=          12
  0.00000000E+00  2.79284600E+00  2.79284600E+00  0.00000000E+00  2.79284600E+00
  2.79284600E+00  0.00000000E+00  2.79284600E+00  2.79284600E+00  0.00000000E+00
  2.79284600E+00  2.79284600E+00
MicOpt                                     I   N=          12
          -1          -1          -1          -1          -1          -1
          -1          -1          -1          -1          -1          -1
Number of residues                         I                0
Number of secondary structures             I                0
SymInf integers                            I   N=          26
           1           1           1           1           1           0
           0           0           0           0           0           0
           0           0           0           0           0           0
           0           0           0           0           0           0
           0           0
RotTr to input orientation                 R   N=          12
  1.00000000E+00  0.00000000E+00  0.00000000E+00  0.00000000E+00  1.00000000E+00
  0.00000000E+00  0.00000000E+00  0.00000000E+00  1.00000000E+00  0.00000000E+00
  0.00000000E+00  0.00000000E+00
Number of contracted shells                I               32
Number of primitive shells                 I               76
Pure/Cartesian d shells                    I                1
Pure/Cartesian f shells                    I                0
Highest angular momentum                   I                2
Largest degree of contraction              I                6
Shell types                                I   N=          32
           0          -1          -1           2           0           0
           0           0           0          -1          -1           2
           0           0           0           0           0          -1
          -1           2           0           0           0           0
           0          -1          -1           2           0           0
           0           0
Number of primitives per shell             I   N=          32
           6           3           1           1           3           1
           3           1           6           3           1           1
           3           1           3           1           6           3
           1           1           3           1           3           1
           6           3           1           1           3           1
           3           1
Shell to atom map                          I   N=          32
           1           1           1           1           2           2
           3           3           4           4           4           4
           5           5           6           6           7           7
           7           7           8           8           9           9
          10          10          10          10          11          11
          12          12
Primitive exponents                        R   N=          76
  3.04752488E+03  4.57369518E+02  1.03948685E+02  2.92101553E+01  9.28666296E+00
  3.16392696E+00  7.86827235E+00  1.88128854E+00  5.44249258E-01  1.68714478E-01
  8.00000000E-01  1.87311370E+01  2.82539436E+00  6.40121692E-01  1.61277759E-01
  1.87311370E+01  2.82539436E+00  6.40121692E-01  1.61277759E-01  3.04752488E+03
  4.57369518E+02  1.03948685E+02  2.92101553E+01  9.28666296E+00  3.16392696E+00
  7.86827235E+00  1.88128854E+00  5.44249258E-01  1.68714478E-01  8.00000000E-01
  1.87311370E+01  2.82539436E+00  6.40121692E-01  1.61277759E-01  1.87311370E+01
  2.82539436E+00  6.40121692E-01  1.61277759E-01  3.04752488E+03  4.57369518E+02
  1.03948685E+02  2.92101553E+01  9.28666296E+00  3.16392696E+00  7.86827235E+00
  1.88128854E+00  5.44249258E-01  1.68714478E-01  8.00000000E-01  1.87311370E+01
  2.82539436E+00  6.40121692E-01  1.61277759E-01  1.87311370E+01  2.82539436E+00
  6.40121692E-01  1.61277759E-01  3.04752488E+03  4.57369518E+02  1.03948685E+02
  2.92101553E+01  9.28666296E+00  3.16392696E+00  7.86827235E+00  1.88128854E+00
  5.44249258E-01  1.68714478E-01  8.00000000E-01  1.87311370E+01  2.82539436E+00
  6.40121692E-01  1.61277759E-01  1.87311370E+01  2.82539436E+00  6.40121692E-01
  1.61277759E-01
Contraction coefficients                   R   N=          76
  1.83473713E-03  1.40373228E-02  6.88426224E-02  2.32184443E-01  4.67941348E-01
  3.62311985E-01 -1.19332420E-01 -1.60854152E-01  1.14345644E+00  1.00000000E+00
  1.00000000E+00  3.34946043E-02  2.34726953E-01  8.13757326E-01  1.00000000E+00
  3.34946043E-02  2.34726953E-01  8.13757326E-01  1.00000000E+00  1.83473713E-03
  1.40373228E-02  6.88426224E-02  2.32184443E-01  4.67941348E-01  3.62311985E-01
 -1.19332420E-01 -1.60854152E-01  1.14345644E+00  1.00000000E+00  1.00000000E+00
  3.34946043E-02  2.34726953E-01  8.13757326E-01  1.00000000E+00  3.34946043E-02
  2.34726953E-01  8.13757326E-01  1.00000000E+00  1.83473713E-03  1.40373228E-02
  6.88426224E-02  2.32184443E-01  4.67941348E-01  3.62311985E-01 -1.19332420E-01
 -1.60854152E-01  1.14345644E+00  1.00000000E+00  1.00000000E+00  3.34946043E-02
  2.34726953E-01  8.13757326E-01  1.00000000E+00  3.34946043E-02  2.34726953E-01
  8.13757326E-01  1.00000000E+00  1.83473713E-03  1.40373228E-02  6.88426224E-02
  2.32184443E-01  4.67941348E-01  3.62311985E-01 -1.19332420E-01 -1.60854152E-01
  1.14345644E+00  1.00000000E+00  1.00000000E+00  3.34946043E-02  2.34726953E-01
  8.13757326E-01  1.00000000E+00  3.34946043E-02  2.34726953E-01  8.13757326E-01
  1.00000000E+00
P(S=P) Contraction coefficients            R   N=          76
  0.00000000E+00  0.00000000E+00  0.00000000E+00  0.00000000E+00  0.00000000E+00
  0.00000000E+00  6.89990666E-02  3.16423961E-01  7.44308291E-01  1.00000000E+00
  0.00000000E+00  0.00000000E+00  0.00000000E+00  0.00000000E+00  0.00000000E+00
  0.00000000E+00  0.00000000E+00  0.00000000E+00  0.00000000E+00  0.00000000E+00
  0.00000000E+00  0.00000000E+00  0.00000000E+00  0.00000000E+00  0.00000000E+00
  6.89990666E-02  3.16423961E-01  7.44308291E-01  1.00000000E+00  0.00000000E+00
  0.00000000E+00  0.00000000E+00  0.00000000E+00  0.00000000E+00  0.00000000E+00
  0.00000000E+00  0.00000000E+00  0.00000000E+00  0.00000000E+00  0.00000000E+00
  0.00000000E+00  0.00000000E+00  0.00000000E+00  0.00000000E+00  6.89990666E-02
  3.16423961E-01  7.44308291E-01  1.00000000E+00  0.00000000E+00  0.00000000E+00
  0.00000000E+00  0.00000000E+00  0.00000000E+00  0.00000000E+00  0.00000000E+00
  0.00000000E+00  0.00000000E+00  0.00000000E+00  0.00000000E+00  0.00000000E+00
  0.00000000E+00  0.00000000E+00  0.00000000E+00  6.89990666E-02  3.16423961E-01
  7.44308291E-01  1.00000000E+00  0.00000000E+00  0.00000000E+00  0.00000000E+00
  0.00000000E+00  0.00000000E+00  0.00000000E+00  0.00000000E+00  0.00000000E+00
  0.00000000E+00
Coordinates of each shell                  R   N=          96
  0.00000000E+00  0.00000000E+00  1.25468178E+00  0.00000000E+00  0.00000000E+00
  1.25468178E+00  0.00000000E+00  0.00000000E+00  1.25468178E+00  0.00000000E+00
  0.00000000E+00  1.25468178E+00  0.00000000E+00  1.74708205E+00  2.33445428E+00
  0.00000000E+00  1.74708205E+00  2.33445428E+00  0.00000000E+00 -1.74708205E+00
  2.33445428E+00  0.00000000E+00 -1.74708205E+00  2.33445428E+00  0.00000000E+00
  0.00000000E+00 -1.25468178E+00  0.00000000E+00  0.00000000E+00 -1.25468178E+00
  0.00000000E+00  0.00000000E+00 -1.25468178E+00  0.00000000E+00  0.00000000E+00
 -1.25468178E+00  0.00000000E+00 -1.74708205E+00 -2.33445428E+00  0.00000000E+00
 -1.74708205E+00 -2.33445428E+00  0.00000000E+00  1.74708205E+00 -2.33445428E+00
  0.00000000E+00  1.74708205E+00 -2.33445428E+00  0.00000000E+00 -8.57675109E-01
  7.02088727E+00  0.00000000E+00 -8.57675109E-01  7.02088727E+00  0.00000000E+00
 -8.57675109E-01  7.02088727E+00  0.00000000E+00 -8.57675109E-01  7.02088727E+00
  0.00000000E+00 -1.61766583E+00  8.92892775E+00  0.00000000E+00 -1.61766583E+00
  8.92892775E+00  0.00000000E+00 -2.22442107E+00  5.48784788E+00  0.00000000E+00
 -2.22442107E+00  5.48784788E+00  0.00000000E+00  1.61356556E+00  6.58514088E+00
  0.00000000E+00  1.61356556E+00  6.58514088E+00  0.00000000E+00  1.61356556E+00
  6.58514088E+00  0.00000000E+00  1.61356556E+00  6.58514088E+00  0.00000000E+00
  2.37355629E+00  4.67710041E+00  0.00000000E+00  2.37355629E+00  4.67710041E+00
  0.00000000E+00  2.98031152E+00  8.11818028E+00  0.00000000E+00  2.98031152E+00
  8.11818028E+00
Num ILSW                                   I              100
ILSW                                       I   N=         100
           0           1           0           0           2           0
           0           0           0           0        4639          -1
           5           0           0           0           0           0
           0           0           0           0           0           0
           1           1           0           0           0           0
           0           0      100000           0          -1           0
           0           0           0           0           0           0
           0           0           0           1           0           0
           0 -2000000000           1           0           0           0
           0           0         121          52           0           0
           0           0          58           0           0           0
           0           0           0          12           0           1
           0           0           0           0           0           0
           0           0           0           0           0           0
           0           0           0           0           0           0
           0           0           0           0           0           0
           0           0           0           0
Num RLSW                                   I               52
RLSW                                       R   N=          52
  1.00000000E+00  1.00000000E+00  1.00000000E+00  1.00000000E+00  1.00000000E+00
  0.00000000E+00  2.00000000E-01  2.22036000E-01  0.00000000E+00  7.77964000E-01
  0.00000000E+00  2.00000000E-01  0.00000000E+00  0.00000000E+00  1.00000000E+00
  0.00000000E+00  0.00000000E+00  1.00000000E+00  0.00000000E+00  0.00000000E+00
  0.00000000E+00  0.00000000E+00  1.00000000E+00  0.00000000E+00  0.00000000E+00
  0.00000000E+00  0.00000000E+00  1.00000000E+00  0.00000000E+00  0.00000000E+00
  0.00000000E+00  0.00000000E+00  1.00000000E+00  0.00000000E+00  0.00000000E+00
  0.00000000E+00  0.00000000E+00  0.00000000E+00  1.00000000E+00  1.00000000E+00
  0.00000000E+00  1.00000000E+00  0.00000000E+00  0.00000000E+00  0.00000000E+00
  0.00000000E+00  0.00000000E+00  0.00000000E+00  0.00000000E+00  0.00000000E+00
  0.00000000E+00  0.00000000E+00
MxBond                                     I                3
NBond                                      I   N=          12
           3           1           1           3           1           1
           3           1           1           3           1           1
IBond                                      I   N=          36
           2           3           4           1           0           0
           1           0           0           1           5           6
           4           0           0           4           0           0
           8           9          10           7           0           0
           7           0           0           7          11          12
          10           0           0          10           0           0
RBond                                      R   N=          36
  1.00000000E+00  1.00000000E+00  2.00000000E+00  1.00000000E+00  0.00000000E+00
  0.00000000E+00  1.00000000E+00  0.00000000E+00  0.00000000E+00  2.00000000E+00
  1.00000000E+00  1.00000000E+00  1.00000000E+00  0.00000000E+00  0.00000000E+00
  1.00000000E+00  0.00000000E+00  0.00000000E+00  1.00000000E+00  1.00000000E+00
  2.00000000E+00  1.00000000E+00  0.00000000E+00  0.00000000E+00  1.00000000E+00
  0.00000000E+00  0.00000000E+00  2.00000000E+00  1.00000000E+00  1.00000000E+00
  1.00000000E+00  0.00000000E+00  0.00000000E+00  1.00000000E+00  0.00000000E+00
  0.00000000E+00
Virial Ratio                               R      2.008961951634030E+00
SCF Energy                                 R     -1.570852236808459E+02
Total Energy                               R     -1.570852236808459E+02
RMS Density                                R      9.571641115816623E-10
Job Status                                 I                1
Nuclear derivative order                   I                0
External E-field                           R   N=          35
  0.00000000E+00  0.00000000E+00  0.00000000E+00  0.00000000E+00  0.00000000E+00
  0.00000000E+00  0.00000000E+00  0.00000000E+00  0.00000000E+00  0.00000000E+00
  0.00000000E+00  0.00000000E+00  0.00000000E+00  0.00000000E+00  0.00000000E+00
  0.00000000E+00  0.00000000E+00  0.00000000E+00  0.00000000E+00  0.00000000E+00
  0.00000000E+00  0.00000000E+00  0.00000000E+00  0.00000000E+00  0.00000000E+00
  0.00000000E+00  0.00000000E+00  0.00000000E+00  0.00000000E+00  0.00000000E+00
  0.00000000E+00  0.00000000E+00  0.00000000E+00  0.00000000E+00  0.00000000E+00
IOpCl                                      I                0
IROHF                                      I                0
Alpha Orbital Energies                     R   N=          76
 -1.02959630E+01 -1.02936965E+01 -1.02925548E+01 -1.02903331E+01 -8.67381432E-01
 -8.49324323E-01 -6.87077913E-01 -6.70831094E-01 -5.68071933E-01 -5.54513088E-01
 -5.08645753E-01 -4.80022402E-01 -4.66056602E-01 -4.00418004E-01 -3.55896428E-01
 -3.43820243E-01  9.15256776E-02  9.73821599E-02  1.76614224E-01  2.01531658E-01
  2.17752388E-01  2.25956322E-01  2.74995685E-01  3.28541416E-01  3.62127742E-01
  4.00608126E-01  4.14381528E-01  5.25867302E-01  5.65486772E-01  6.05065985E-01
  6.06738341E-01  6.56583154E-01  6.58565680E-01  7.09244851E-01  7.27548670E-01
  7.47868829E-01  7.53394720E-01  7.80095121E-01  7.93523474E-01  9.45510840E-01
  9.61305879E-01  9.70248785E-01  1.02548495E+00  1.05387689E+00  1.07708800E+00
  1.08556032E+00  1.13657941E+00  1.17003380E+00  1.20112980E+00  1.30618082E+00
  1.33044604E+00  1.34697993E+00  1.54647569E+00  1.54924727E+00  1.62303610E+00
  1.62383277E+00  1.91353914E+00  1.91611451E+00  1.94339784E+00  2.03220192E+00
  2.07201744E+00  2.11394984E+00  2.20208346E+00  2.23468025E+00  2.36737066E+00
  2.40348876E+00  2.47358067E+00  2.47505031E+00  2.77755534E+00  2.81105276E+00
  2.81462107E+00  2.85668101E+00  4.20259948E+00  4.23489902E+00  4.36305617E+00
  4.37452692E+00
Alpha MO coefficients                      R   N=        5776
 -5.42200122E-04 -7.12923068E-05  5.95113756E-16  4.26212438E-05 -6.75839441E-05
  1.54160965E-04  2.13397547E-16 -4.45887796E-04  7.69380164E-04 -5.66332726E-05
  2.56800741E-05 -9.46936021E-05  2.31218291E-16  4.86150611E-16 -9.73432759E-06
 -6.06771594E-05 -9.39702894E-05 -5.76177082E-05 -9.58875991E-04 -2.36416151E-04
 -5.63868339E-05 -4.39362355E-16 -8.79031734E-06  1.85790440E-05  6.39369602E-04
  1.00411584E-17  2.06345290E-04  3.96541150E-04 -2.50459796E-05 -1.30593157E-05
  4.17146022E-05  3.20298892E-16 -2.08944032E-16  7.26537193E-06 -5.95372465E-06
  1.58604979E-04 -3.38241611E-05 -1.65544864E-05  9.83396400E-01  4.58587307E-02
 -3.02532239E-16  5.03793825E-05 -4.19906736E-05 -1.30181668E-02  7.15465499E-18
 -3.94785726E-04  2.93626267E-04 -8.55056573E-03 -7.84349102E-03 -8.18794220E-03
  1.19350593E-16 -1.64433382E-16 -8.75827715E-05 -3.56525919E-04  2.30056573E-03
 -4.07772192E-04  2.91959407E-03  1.38227793E-01  5.93676600E-03  1.11853596E-16
  4.69972886E-04 -1.09250541E-04  2.54499259E-03 -2.28088067E-16 -1.68119246E-03
  4.08052728E-04 -1.29760873E-03 -1.49057250E-03 -1.34954930E-03 -7.63398827E-17
 -1.87543926E-16  3.68744752E-05 -1.42394543E-04  4.38877963E-04 -1.30201753E-04
  2.43119433E-04  1.39978699E-01  5.97293122E-03  3.06467300E-16  5.35432124E-06
  5.05039592E-04  2.97718249E-03  1.70263410E-16 -1.26819884E-04 -2.14602772E-03
 -1.34542192E-03 -1.39173192E-03 -1.47459610E-03 -8.15669105E-17 -1.01152129E-16
 -9.14176488E-07 -1.17045248E-04  5.93755449E-04 -1.14735007E-04  2.74881961E-04
  9.83141953E-01  4.58010902E-02 -1.78840773E-16  4.16113904E-06  2.07161760E-05
 -1.30918001E-02 -4.17807234E-16  3.95919255E-05 -8.53536470E-04 -8.56185170E-03
 -8.19995597E-03 -7.86841355E-03 -2.57749614E-16  8.67672796E-17  3.27408811E-06
 -3.56063337E-04  2.31414252E-03 -3.60791478E-04  2.28111393E-03  3.62062503E-04
 -1.79749699E-05  1.48518314E-16 -1.08489209E-05  3.27787055E-05  9.65130381E-05
  6.17909522E-16  6.93099866E-05 -1.15592502E-04 -3.61211733E-05 -7.56547544E-06
 -1.58049892E-05 -2.63867896E-16  5.57528362E-18  5.04073519E-06  4.47093568E-06
  8.23677955E-05  3.17574347E-06 -4.69263096E-05 -5.06648798E-04 -7.51722895E-05
 -1.27491514E-16  1.62000718E-05  3.05582327E-05  2.44994348E-04 -1.37716713E-16
  9.84889480E-07 -2.60885079E-04 -3.53165254E-05 -1.88870262E-05 -3.00441770E-06
  5.67411747E-17 -1.80206823E-17 -2.17554662E-06  3.03333571E-05 -4.18295275E-04
  3.77687818E-06  8.68832072E-05 -1.38499338E-03 -1.29045074E-04  1.32616927E-16
 -5.85842416E-05 -6.12911214E-05  4.10837467E-04 -4.46473315E-17  7.25837062E-04
  7.18469113E-04 -5.35968329E-05  2.16944403E-05 -7.65895221E-05  4.38384314E-16
  3.20069781E-17  8.65520048E-06 -3.32926836E-05 -1.82332404E-03 -4.57584754E-05
  2.32168557E-04  7.30559530E-04 -1.36633388E-05  4.87189223E-17  3.85856419E-06
  1.00108412E-05  5.41133169E-04 -9.03983201E-16 -2.42277122E-04  3.71390827E-04
 -3.58062016E-05 -1.90681005E-05  2.88632799E-05  3.02333790E-16 -3.39361826E-16
 -1.10441419E-05 -3.22729705E-05 -2.40255331E-05 -7.74545318E-06  1.89928936E-04
 -1.38743097E-01 -7.00984719E-03 -8.41094382E-18 -5.15335681E-04  8.32927086E-05
  6.38428371E-03  1.18695978E-16  1.67537514E-03 -5.29416204E-04  1.10883120E-03
  6.62258262E-04  9.56311925E-04 -3.81992684E-17  3.52628566E-17  5.02661152E-05
 -1.53583593E-05 -3.66231700E-04 -1.93531584E-05 -6.93597560E-04  9.83473343E-01
  4.61439376E-02  1.40432575E-16 -2.23589857E-04  1.10703677E-05 -1.48414802E-02
 -1.55054984E-16  7.09208908E-04  5.75525535E-04 -8.50882818E-03 -7.69723493E-03
 -8.15530841E-03  2.51539305E-16 -1.04330165E-16 -7.14652016E-05 -4.10329820E-04
  4.14052887E-03 -3.29761452E-04  2.26893911E-03  9.83249965E-01  4.63030243E-02
  1.15043418E-16  1.71825660E-05 -2.39432322E-04 -1.65410755E-02  2.60781370E-16
 -5.63299906E-04  1.70409874E-03 -8.44334035E-03 -8.11375169E-03 -7.73527711E-03
 -4.38254041E-16  2.85798456E-16 -6.65006027E-06 -4.46343818E-04  4.20638908E-03
 -4.43139328E-04  2.79690831E-03 -1.40520201E-01 -7.17530161E-03  1.46712702E-17
  2.18450484E-06 -4.44830113E-04  7.87734471E-03  1.42199263E-16  1.86703804E-04
  2.49720266E-03  1.08562591E-03  9.50424514E-04  7.24077855E-04 -1.90098723E-16
  1.20275488E-17  1.43255505E-05 -3.94167265E-05 -3.81157557E-04 -5.48486852E-05
 -5.39670657E-04  2.63537914E-04 -4.92396624E-05  1.70165612E-16  2.17521731E-06
  3.34257937E-05  5.38120212E-04  2.86410001E-16 -2.85096180E-04 -1.06579704E-04
 -5.93946133E-05 -2.02195586E-05 -3.24687854E-05 -1.23538999E-16  1.51263043E-16
  3.12670259E-05 -2.99192744E-05 -1.27854337E-05  3.01648592E-06 -9.00537264E-04
  1.48655016E-03 -3.71631915E-05 -2.18019009E-16  6.40532582E-06  5.50902047E-05
  1.09771198E-03  8.70414661E-17  1.74314530E-04 -5.42891865E-04 -9.20489975E-05
 -3.81737385E-05 -3.74098840E-05  1.34494382E-16 -8.53940079E-17 -2.34958866E-05
 -8.45058407E-07 -1.90841299E-03 -3.20845590E-05  9.73661041E-05 -1.04732004E-01
  1.98652634E-01  6.49584238E-16  4.13365726E-03 -4.03999660E-02  1.28814057E-01
 -2.76732206E-16 -8.88808633E-04  2.52342502E-02 -8.99476613E-03  2.07599080E-03
  5.55941692E-03 -4.96019470E-17 -1.15285296E-16  3.77256382E-04  7.49495112E-02
  2.73175724E-02  6.27221644E-02  1.72774100E-02 -8.98429121E-02  1.67781929E-01
  6.48354879E-18  8.20395077E-04  6.18763673E-02  1.55926276E-01 -1.18863045E-16
  2.04193280E-04  1.62603413E-02 -8.11254720E-03  8.91046012E-04  6.51762141E-03
  1.23108840E-16  2.91746402E-16  1.32887351E-04  4.43268080E-02  9.09789089E-03
  4.47740502E-02  9.25655709E-03 -1.20225191E-01  2.26903204E-01  4.89950850E-17
  7.29091447E-02 -2.09621203E-02  1.76343672E-01 -6.63282755E-17  3.09085946E-03
 -1.40025958E-03 -1.04740323E-02  7.10888048E-03  2.43251251E-03  2.22694356E-17
  6.12239527E-17 -1.26195110E-03  5.92329188E-02  1.07857450E-02  6.96957143E-02
  1.44975452E-02 -1.23757750E-01  2.32814240E-01 -7.03608916E-17 -7.21665899E-02
  4.75998452E-04  1.82881911E-01 -4.58090482E-16 -1.28092893E-03 -4.68109691E-03
 -1.08487762E-02  6.57677082E-03  2.71377677E-03 -5.91347949E-17 -5.84792385E-17
 -6.84345183E-04  8.32605891E-02  1.30647762E-02  6.06711242E-02  1.16106471E-02
 -1.21619184E-01  2.30718246E-01  4.04414123E-16 -9.66804250E-04 -8.86686791E-02
  1.79351603E-01 -1.21309773E-16 -4.85072463E-03 -1.37718571E-02 -1.01285073E-02
  1.86350021E-03  7.81875193E-03 -1.36175389E-16 -1.79853380E-16 -2.17790697E-04
  5.60647040E-02  1.81537642E-02  5.86584427E-02  8.53469248E-03 -1.29849882E-01
  2.46340654E-01  2.67100514E-16 -1.26906508E-04  7.73520564E-02  1.86487532E-01
 -3.99154515E-16  1.77306077E-03  7.51967534E-04 -1.10927216E-02  2.25384626E-03
  7.48346211E-03  1.46236598E-16  2.40874511E-16  3.34152177E-05  6.89254152E-02
  1.57995373E-02  6.87510019E-02  1.42869641E-02  1.01886067E-01 -1.93240369E-01
 -6.24478738E-17 -6.32362117E-02  7.03594352E-03 -1.51827812E-01  2.04682480E-16
 -8.01513960E-04 -3.03525738E-05  8.72276136E-03 -6.13320534E-03 -1.70404989E-03
  2.96051960E-17 -9.53691005E-17  8.44998387E-04 -5.47852913E-02 -1.18493457E-02
 -4.93058719E-02 -6.22319558E-03  9.94647611E-02 -1.88502408E-01  6.93108395E-17
  6.43178880E-02 -1.74386671E-02 -1.47829568E-01 -3.93083425E-16  4.78758192E-03
 -2.78929564E-03  8.43626288E-03 -6.52704992E-03 -1.30180134E-03 -1.77977589E-16
  1.79831298E-16  9.39495181E-04 -4.28903546E-02 -1.03410467E-02 -5.31878606E-02
 -1.20430370E-02  7.72820320E-02 -1.51879694E-01 -7.57849896E-17 -4.02467858E-02
 -1.45434076E-01 -1.38086265E-01  6.54562502E-16 -1.56888268E-03 -6.37875996E-02
  6.04040197E-03 -1.06550921E-02  3.65279102E-03 -3.79278613E-18 -5.37355665E-16
 -2.15988302E-03 -1.48882101E-01 -7.97339747E-02 -7.86268601E-02 -1.95170759E-02
 -9.46685015E-02  1.86797189E-01 -2.72992463E-16 -1.24650711E-02 -9.42921788E-02
  1.64993177E-01 -2.70211041E-17 -6.19499967E-03 -4.74029851E-02 -7.03643707E-03
  1.01070820E-02 -2.53167266E-03 -3.68142302E-16  1.82603397E-16 -8.41786203E-04
  1.04390987E-01  4.28111831E-02  9.59679289E-02  4.07143740E-02 -9.37852945E-02
  1.83489126E-01 -3.64757821E-16 -6.77286126E-02  5.17721209E-02  1.87875977E-01
 -1.26213832E-16 -3.44930406E-02  1.56360111E-02 -7.19734005E-03 -9.07009391E-04
  8.24161173E-03  1.10363396E-16 -6.58611077E-18  2.16501993E-03  1.09553257E-01
  4.67407225E-02  7.18681178E-02  1.82076884E-02  5.78508582E-02 -1.12726222E-01
 -2.94584128E-16 -1.19839532E-01  8.51272770E-02 -1.06914844E-01 -1.44596672E-16
 -3.10400191E-02  3.06337302E-02  4.80725076E-03  5.47804960E-03 -1.00395391E-02
  4.25904610E-16 -8.99576065E-18 -1.95524789E-03 -1.43462833E-01 -7.89846604E-02
 -5.47651158E-02 -2.75326871E-02  7.59725512E-02 -1.50032817E-01  1.31030571E-15
  3.43835857E-02 -1.09445706E-01 -1.40556963E-01 -7.18415311E-16 -7.97855415E-05
 -5.18893550E-02  5.59294676E-03 -9.78175585E-03  3.00512854E-03 -2.33643211E-16
 -1.20256459E-16  1.91492416E-03 -6.40945604E-02 -1.32285058E-02 -1.18713647E-01
 -6.89826835E-02 -7.70754715E-02  1.52460484E-01  4.37774810E-16  1.17480139E-02
 -1.03854819E-01  1.39804875E-01 -6.30389385E-17  6.60159143E-03 -4.69996532E-02
 -5.66992252E-03  9.67850232E-03 -2.92025394E-03  6.52431174E-17 -3.00769419E-16
  6.52974741E-04  8.62179796E-02  3.90950971E-02  9.46720629E-02  4.10501874E-02
  7.97294140E-02 -1.56447073E-01 -1.10635347E-16  1.53194829E-01  1.56166902E-02
 -1.52627939E-01  2.71969212E-16  5.22515177E-02  8.88534007E-03  6.23507964E-03
  4.25171301E-03 -1.17086593E-02 -8.61640413E-18  1.23415523E-16 -3.86078902E-03
 -8.73465852E-02 -4.20915198E-02 -1.35201291E-01 -7.19052984E-02 -1.04268581E-01
  2.05117825E-01 -4.36248419E-16  1.12903485E-01  2.10427952E-02  2.06682700E-01
 -4.64990692E-16  5.16167589E-02  3.17293527E-03 -7.63492597E-03 -1.41765440E-03
  1.03256129E-02 -2.40029030E-16  9.19784874E-17  2.91293787E-03  8.50179028E-02
  2.83248279E-02  1.29636808E-01  5.76810861E-02 -4.83096625E-02  9.65249551E-02