monomer optimized                                                       
SP        RwB97XD                                                     6-31G(d)            
Number of atoms                            I               12
Info1-9                                    I   N=           9
          21          21           0           0           0         111
           1          18        -802
Full Title                                 C   N=           2
monomer optimized       
Route                                      C   N=           4
# SP wB97XD/6-31G* NoSymmetry IOp(3/32=2,3/33=1)
Charge                                     I                0
Multiplicity                               I                1
Number of electrons                        I               32
Number of alpha electrons                  I               16
Number of beta electrons                   I               16
Number of basis functions                  I               76
Number of independent functions            I               76
Number of point charges in /Mol/           I                0
Number of translation vectors              I                0
Atomic numbers                             I   N=          12
           6           1           1           6           1           1
           6           1           1           6           1           1
Nuclear charges                            R   N=          12
  6.00000000E+00  1.00000000E+00  1.00000000E+00  6.00000000E+00  1.00000000E+00
  1.00000000E+00  6.00000000E+00  1.00000000E+00  1.00000000E+00  6.00000000E+00
  1.00000000E+00  1.00000000E+00
Current cartesian coordinates              R   N=          36
  0.00000000E+00  0.00000000E+00  1.25468178E+00  0.00000000E+00  1.74708205E+00
  2.33445428E+00  0.00000000E+00 -1.74708205E+00  2.33445428E+00  0.00000000E+00
  0.00000000E+00 -1.25468178E+00  0.00000000E+00 -1.74708205E+00 -2.33445428E+00
  0.00000000E+00  1.74708205E+00 -2.33445428E+00  0.00000000E+00 -8.57675109E-01
  7.02088727E+00  0.00000000E+00 -1.61766583E+00  8.92892775E+00  0.00000000E+00
 -2.22442107E+00  5.48784788E+00  0.00000000E+00  1.61356556E+00  6.58514088E+00
  0.00000000E+00  2.37355629E+00  4.67710041E+00  0.00000000E+00  2.98031152E+00
  8.11818028E+00
Number of symbols in /Mol/                 I                0
Force Field                                I                0
Atom Types                                 C   N=          12
                                                            
                                                            
                        
Int Atom Types                             I   N=          12
           0           0           0           0           0           0
           0           0           0           0           0           0
MM charges                                 R   N=          12
  0.00000000E+00  0.00000000E+00  0.00000000E+00  0.00000000E+00  0.00000000E+00
  0.00000000E+00  0.00000000E+00  0.00000000E+00  0.00000000E+00  0.00000000E+00
  0.00000000E+00  0.00000000E+00
Integer atomic weights                     I   N=          12
          12           1           1          12           1           1
          12           1           1          12           1           1
Real atomic weights                        R   N=          12
  1.20000000E+01  1.00782504E+00  1.00782504E+00  1.20000000E+01  1.00782504E+00
  1.00782504E+00  1.20000000E+01  1.00782504E+00  1.00782504E+00  1.20000000E+01
  1.00782504E+00  1.00782504E+00
Atom fragment info                         I   N=          12
           0           0           0           0           0           0
           0           0           0           0           0           0
Atom residue num                           I   N=          12
           0           0           0           0           0           0
           0           0           0           0           0           0
Nuclear spins                              I   N=          12
           0           1           1           0           1           1
           0           1           1           0           1           1
Nuclear ZEff                               R   N=          12
 -3.60000000E+00 -1.00000000E+00 -1.00000000E+00 -3.60000000E+00 -1.00000000E+00
 -1.00000000E+00 -3.60000000E+00 -1.00000000E+00 -1.00000000E+00 -3.60000000E+00
 -1.00000000E+00 -1.00000000E+00
Nuclear ZNuc                               R   N=          12
  6.00000000E+00  1.00000000E+00  1.00000000E+00  6.00000000E+00  1.00000000E+00
  1.00000000E+00  6.00000000E+00  1.00000000E+00  1.00000000E+00  6.00000000E+00
  1.00000000E+00  1.00000000E+00
Nuclear QMom                               R   N=          12
  0.00000000E+00  0.00000000E+00  0.00000000E+00  0.00000000E+00  0.00000000E+00
  0.00000000E+00  0.00000000E+00  0.00000000E+00  0.00000000E+00  0.00000000E+00
  0.00000000E+00  0.00000000E+00
Nuclear GFac                               R   N=          12
  0.00000000E+00  2.79284600E+00  2.79284600E+00  0.00000000E+00  2.79284600E+00
  2.79284600E+00  0.00000000E+00  2.79284600E+00  2.79284600E+00  0.00000000E+00
  2.79284600E+00  2.79284600E+00
MicOpt                                     I   N=          12
          -1          -1          -1          -1          -1          -1
          -1          -1          -1          -1          -1          -1
Number of residues                         I                0
Number of secondary structures             I                0
Number of contracted shells                I               32
Number of primitive shells                 I               76
Pure/Cartesian d shells                    I                1
Pure/Cartesian f shells                    I                0
Highest angular momentum                   I                2
Largest degree of contraction              I                6
Shell types                                I   N=          32
           0          -1          -1           2           0           0
           0           0           0          -1          -1           2
           0           0           0           0           0          -1
          -1           2           0           0           0           0
           0          -1          -1           2           0           0
           0           0
Number of primitives per shell             I   N=          32
           6           3           1           1           3           1
           3           1           6           3           1           1
           3           1           3           1           6           3
           1           1           3           1           3           1
           6           3           1           1           3           1
           3           1
Shell to atom map                          I   N=          32
           1           1           1           1           2           2
           3           3           4           4           4           4
           5           5           6           6           7           7
           7           7           8           8           9           9
          10          10          10          10          11          11
          12          12
Primitive exponents                        R   N=          76
  3.04752488E+03  4.57369518E+02  1.03948685E+02  2.92101553E+01  9.28666296E+00
  3.16392696E+00  7.86827235E+00  1.88128854E+00  5.44249258E-01  1.68714478E-01
  8.00000000E-01  1.87311370E+01  2.82539436E+00  6.40121692E-01  1.61277759E-01
  1.87311370E+01  2.82539436E+00  6.40121692E-01  1.61277759E-01  3.04752488E+03
  4.57369518E+02  1.03948685E+02  2.92101553E+01  9.28666296E+00  3.16392696E+00
  7.86827235E+00  1.88128854E+00  5.44249258E-01  1.68714478E-01  8.00000000E-01
  1.87311370E+01  2.82539436E+00  6.40121692E-01  1.61277759E-01  1.87311370E+01
  2.82539436E+00  6.40121692E-01  1.61277759E-01  3.04752488E+03  4.57369518E+02
  1.03948685E+02  2.92101553E+01  9.28666296E+00  3.16392696E+00  7.86827235E+00
  1.88128854E+00  5.44249258E-01  1.68714478E-01  8.00000000E-01  1.87311370E+01
  2.82539436E+00  6.40121692E-01  1.61277759E-01  1.87311370E+01  2.82539436E+00
  6.40121692E-01  1.61277759E-01  3.04752488E+03  4.57369518E+02  1.03948685E+02
  2.92101553E+01  9.28666296E+00  3.16392696E+00  7.86827235E+00  1.88128854E+00
  5.44249258E-01  1.68714478E-01  8.00000000E-01  1.87311370E+01  2.82539436E+00
  6.40121692E-01  1.61277759E-01  1.87311370E+01  2.82539436E+00  6.40121692E-01
  1.61277759E-01
Contraction coefficients                   R   N=          76
  1.83473713E-03  1.40373228E-02  6.88426223E-02  2.32184443E-01  4.67941348E-01
  3.62311985E-01 -1.19332420E-01 -1.60854152E-01  1.14345644E+00  1.00000000E+00
  1.00000000E+00  3.34946043E-02  2.34726953E-01  8.13757326E-01  1.00000000E+00
  3.34946043E-02  2.34726953E-01  8.13757326E-01  1.00000000E+00  1.83473713E-03
  1.40373228E-02  6.88426223E-02  2.32184443E-01  4.67941348E-01  3.62311985E-01
 -1.19332420E-01 -1.60854152E-01  1.14345644E+00  1.00000000E+00  1.00000000E+00
  3.34946043E-02  2.34726953E-01  8.13757326E-01  1.00000000E+00  3.34946043E-02
  2.34726953E-01  8.13757326E-01  1.00000000E+00  1.83473713E-03  1.40373228E-02
  6.88426223E-02  2.32184443E-01  4.67941348E-01  3.62311985E-01 -1.19332420E-01
 -1.60854152E-01  1.14345644E+00  1.00000000E+00  1.00000000E+00  3.34946043E-02
  2.34726953E-01  8.13757326E-01  1.00000000E+00  3.34946043E-02  2.34726953E-01
  8.13757326E-01  1.00000000E+00  1.83473713E-03  1.40373228E-02  6.88426223E-02
  2.32184443E-01  4.67941348E-01  3.62311985E-01 -1.19332420E-01 -1.60854152E-01
  1.14345644E+00  1.00000000E+00  1.00000000E+00  3.34946043E-02  2.34726953E-01
  8.13757326E-01  1.00000000E+00  3.34946043E-02  2.34726953E-01  8.13757326E-01
  1.00000000E+00
P(S=P) Contraction coefficients            R   N=          76
  0.00000000E+00  0.00000000E+00  0.00000000E+00  0.00000000E+00  0.00000000E+00
  0.00000000E+00  6.89990666E-02  3.16423961E-01  7.44308291E-01  1.00000000E+00
  0.00000000E+00  0.00000000E+00  0.00000000E+00  0.00000000E+00  0.00000000E+00
  0.00000000E+00  0.00000000E+00  0.00000000E+00  0.00000000E+00  0.00000000E+00
  0.00000000E+00  0.00000000E+00  0.00000000E+00  0.00000000E+00  0.00000000E+00
  6.89990666E-02  3.16423961E-01  7.44308291E-01  1.00000000E+00  0.00000000E+00
  0.00000000E+00  0.00000000E+00  0.00000000E+00  0.00000000E+00  0.00000000E+00
  0.00000000E+00  0.00000000E+00  0.00000000E+00  0.00000000E+00  0.00000000E+00
  0.00000000E+00  0.00000000E+00  0.00000000E+00  0.00000000E+00  6.89990666E-02
  3.16423961E-01  7.44308291E-01  1.00000000E+00  0.00000000E+00  0.00000000E+00
  0.00000000E+00  0.00000000E+00  0.00000000E+00  0.00000000E+00  0.00000000E+00
  0.00000000E+00  0.00000000E+00  0.00000000E+00  0.00000000E+00  0.00000000E+00
  0.00000000E+00  0.00000000E+00  0.00000000E+00  6.89990666E-02  3.16423961E-01
  7.44308291E-01  1.00000000E+00  0.00000000E+00  0.00000000E+00  0.00000000E+00
  0.00000000E+00  0.00000000E+00  0.00000000E+00  0.00000000E+00  0.00000000E+00
  0.00000000E+00
Coordinates of each shell                  R   N=          96
  0.00000000E+00  0.00000000E+00  1.25468178E+00  0.00000000E+00  0.00000000E+00
  1.25468178E+00  0.00000000E+00  0.00000000E+00  1.25468178E+00  0.00000000E+00
  0.00000000E+00  1.25468178E+00  0.00000000E+00  1.74708205E+00  2.33445428E+00
  0.00000000E+00  1.74708205E+00  2.33445428E+00  0.00000000E+00 -1.74708205E+00
  2.33445428E+00  0.00000000E+00 -1.74708205E+00  2.33445428E+00  0.00000000E+00
  0.00000000E+00 -1.25468178E+00  0.00000000E+00  0.00000000E+00 -1.25468178E+00
  0.00000000E+00  0.00000000E+00 -1.25468178E+00  0.00000000E+00  0.00000000E+00
 -1.25468178E+00  0.00000000E+00 -1.74708205E+00 -2.33445428E+00  0.00000000E+00
 -1.74708205E+00 -2.33445428E+00  0.00000000E+00  1.74708205E+00 -2.33445428E+00
  0.00000000E+00  1.74708205E+00 -2.33445428E+00  0.00000000E+00 -8.57675109E-01
  7.02088727E+00  0.00000000E+00 -8.57675109E-01  7.02088727E+00  0.00000000E+00
 -8.57675109E-01  7.02088727E+00  0.00000000E+00 -8.57675109E-01  7.02088727E+00
  0.00000000E+00 -1.61766583E+00  8.92892775E+00  0.00000000E+00 -1.61766583E+00
  8.92892775E+00  0.00000000E+00 -2.22442107E+00  5.48784788E+00  0.00000000E+00
 -2.22442107E+00  5.48784788E+00  0.00000000E+00  1.61356556E+00  6.58514088E+00
  0.00000000E+00  1.61356556E+00  6.58514088E+00  0.00000000E+00  1.61356556E+00
  6.58514088E+00  0.00000000E+00  1.61356556E+00  6.58514088E+00  0.00000000E+00
  2.37355629E+00  4.67710041E+00  0.00000000E+00  2.37355629E+00  4.67710041E+00
  0.00000000E+00  2.98031152E+00  8.11818028E+00  0.00000000E+00  2.98031152E+00
  8.11818028E+00
Num ILSW                                   I              100
ILSW                                       I   N=         100
           0           1           0           0           2           0
           0           0           0           0        4639          -1
           4           0           0           0           0           0
           0           0           1           0           0           0
           1           1           0           0           0           0
           0           0      100000           0          -1           0
           0           0           0           0           0           0
           0           0           0           1           0           0
           0 -2000000000           1           0           0           0
           0           0         121          52           0           0
           0           0          58           0           0           0
           0           0           0           0           0           1
           0           0           0           0           0           0
           0           0           0           0           0           0
           0           0           0           0           0           0
           0           0           0           0           0           0
           0           0           0           0
Num RLSW                                   I               52
RLSW                                       R   N=          52
  1.00000000E+00  1.00000000E+00  1.00000000E+00  1.00000000E+00  1.00000000E+00
  0.00000000E+00  2.00000000E-01  2.22036000E-01  0.00000000E+00  7.77964000E-01
  0.00000000E+00  2.00000000E-01  0.00000000E+00  0.00000000E+00  1.00000000E+00
  0.00000000E+00  0.00000000E+00  1.00000000E+00  0.00000000E+00  0.00000000E+00
  0.00000000E+00  0.00000000E+00  1.00000000E+00  0.00000000E+00  0.00000000E+00
  0.00000000E+00  0.00000000E+00  1.00000000E+00  0.00000000E+00  0.00000000E+00
  0.00000000E+00  0.00000000E+00  1.00000000E+00  0.00000000E+00  0.00000000E+00
  0.00000000E+00  0.00000000E+00  0.00000000E+00  1.00000000E+00  1.00000000E+00
  0.00000000E+00  1.00000000E+00  0.00000000E+00  0.00000000E+00  0.00000000E+00
  0.00000000E+00  0.00000000E+00  0.00000000E+00  0.00000000E+00  0.00000000E+00
  0.00000000E+00  0.00000000E+00
MxBond                                     I                3
NBond                                      I   N=          12
           3           1           1           3           1           1
           3           1           1           3           1           1
IBond                                      I   N=          36
           2           3           4           1           0           0
           1           0           0           1           5           6
           4           0           0           4           0           0
           8           9          10           7           0           0
           7           0           0           7          11          12
          10           0           0          10           0           0
RBond                                      R   N=          36
  1.00000000E+00  1.00000000E+00  2.00000000E+00  1.00000000E+00  0.00000000E+00
  0.00000000E+00  1.00000000E+00  0.00000000E+00  0.00000000E+00  2.00000000E+00
  1.00000000E+00  1.00000000E+00  1.00000000E+00  0.00000000E+00  0.00000000E+00
  1.00000000E+00  0.00000000E+00  0.00000000E+00  1.00000000E+00  1.00000000E+00
  2.00000000E+00  1.00000000E+00  0.00000000E+00  0.00000000E+00  1.00000000E+00
  0.00000000E+00  0.00000000E+00  2.00000000E+00  1.00000000E+00  1.00000000E+00
  1.00000000E+00  0.00000000E+00  0.00000000E+00  1.00000000E+00  0.00000000E+00
  0.00000000E+00
Virial Ratio                               R      2.008963188734258E+00
SCF Energy                                 R     -1.570852217987578E+02
Total Energy                               R     -1.570852217987578E+02
RMS Density                                R      7.141861761319237E-09
Job Status                                 I                1
Nuclear derivative order                   I                0
External E-field                           R   N=          35
  0.00000000E+00  0.00000000E+00  0.00000000E+00  0.00000000E+00  0.00000000E+00
  0.00000000E+00  0.00000000E+00  0.00000000E+00  0.00000000E+00  0.00000000E+00
  0.00000000E+00  0.00000000E+00  0.00000000E+00  0.00000000E+00  0.00000000E+00
  0.00000000E+00  0.00000000E+00  0.00000000E+00  0.00000000E+00  0.00000000E+00
  0.00000000E+00  0.00000000E+00  0.00000000E+00  0.00000000E+00  0.00000000E+00
  0.00000000E+00  0.00000000E+00  0.00000000E+00  0.00000000E+00  0.00000000E+00
  0.00000000E+00  0.00000000E+00  0.00000000E+00  0.00000000E+00  0.00000000E+00
IOpCl                                      I                0
IROHF                                      I                0
Alpha Orbital Energies                     R   N=          76
 -1.02959807E+01 -1.02937007E+01 -1.02925705E+01 -1.02903379E+01 -8.67382872E-01
 -8.49327233E-01 -6.87080603E-01 -6.70830772E-01 -5.68072061E-01 -5.54515658E-01
 -5.08645402E-01 -4.80024582E-01 -4.66059775E-01 -4.00412796E-01 -3.55907695E-01
 -3.43827614E-01  9.15162351E-02  9.73751850E-02  1.76601979E-01  2.01500839E-01
  2.17758295E-01  2.25957181E-01  2.74988002E-01  3.28536615E-01  3.62142204E-01
  4.00596536E-01  4.14393589E-01  5.25874145E-01  5.65473404E-01  6.05073867E-01
  6.06724409E-01  6.56579392E-01  6.58554777E-01  7.09259655E-01  7.27541088E-01
  7.47868200E-01  7.53384366E-01  7.80071368E-01  7.93533935E-01  9.45565844E-01
  9.61256456E-01  9.70269273E-01  1.02550418E+00  1.05388441E+00  1.07711154E+00
  1.08553250E+00  1.13655298E+00  1.17004101E+00  1.20112674E+00  1.30617294E+00
  1.33046786E+00  1.34696730E+00  1.54641383E+00  1.54924260E+00  1.62301856E+00
  1.62380526E+00  1.91350846E+00  1.91609224E+00  1.94341707E+00  2.03219066E+00
  2.07192381E+00  2.11399299E+00  2.20205843E+00  2.23477643E+00  2.36736317E+00
  2.40351673E+00  2.47354392E+00  2.47506137E+00  2.77754487E+00  2.81102547E+00
  2.81458848E+00  2.85667345E+00  4.20258176E+00  4.23488161E+00  4.36306803E+00
  4.37451796E+00
Alpha MO coefficients                      R   N=        5776
 -5.40743973E-04 -7.12182338E-05  1.50058076E-15  4.26257108E-05 -6.75648632E-05
  1.54152686E-04 -4.65528967E-16 -4.45919030E-04  7.69170945E-04 -5.66311549E-05
  2.56671782E-05 -9.46856823E-05 -2.90857361E-16  1.33227952E-16 -9.73458421E-06
 -6.06681575E-05 -9.38272546E-05 -5.76017680E-05 -9.58820521E-04 -2.34731456E-04
 -5.62981723E-05  8.30075764E-16 -8.78977725E-06  1.85718650E-05  6.39173751E-04
 -1.25356135E-15  2.06353004E-04  3.96445233E-04 -2.50554713E-05 -1.30712180E-05
  4.16921404E-05  9.39898249E-16 -5.17419603E-16  7.26640845E-06 -5.94908417E-06
  1.58599758E-04 -3.38202097E-05 -1.65662437E-05  9.83405780E-01  4.58606989E-02
 -4.85066720E-16  5.06196151E-05 -4.14567971E-05 -1.30174895E-02  3.25095432E-16
 -3.94500749E-04  2.93312805E-04 -8.55146718E-03 -7.84411212E-03 -8.18950928E-03
  3.20923583E-16  3.89288746E-16 -8.78963228E-05 -3.56484429E-04  2.30067472E-03
 -4.07372406E-04  2.91928282E-03  1.38159483E-01  5.93382974E-03  1.28306269E-15
  4.69878660E-04 -1.09295765E-04  2.54529867E-03 -1.67467635E-15 -1.68110170E-03
  4.07968226E-04 -1.29712230E-03 -1.48990843E-03 -1.34933894E-03 -8.73859926E-16
 -5.44937827E-16  3.65930299E-05 -1.42342022E-04  4.38642322E-04 -1.29984416E-04
  2.42986344E-04  1.39991009E-01  5.97380067E-03  5.53061062E-17  5.34935527E-06
  5.05273135E-04  2.97672043E-03  6.18218563E-16 -1.26757061E-04 -2.14561101E-03
 -1.34568729E-03 -1.39168877E-03 -1.47521803E-03 -3.30559960E-18 -1.42528533E-15
 -8.97969350E-07 -1.17126059E-04  5.93609443E-04 -1.14806282E-04  2.74869119E-04
  9.83139636E-01  4.58046111E-02  6.42432672E-16  4.16309614E-06  2.11116078E-05
 -1.30905179E-02 -1.02113611E-15  3.95773429E-05 -8.53403550E-04 -8.56362981E-03
 -8.20112813E-03 -7.86966941E-03 -1.71879343E-16 -1.25412705E-15  3.25346782E-06
 -3.56179430E-04  2.31395936E-03 -3.60919343E-04  2.28094390E-03  3.60956071E-04
 -1.80130784E-05  8.53168582E-17 -1.08434243E-05  3.27690962E-05  9.64643188E-05
 -6.54232714E-16  6.92712510E-05 -1.15563080E-04 -3.61011800E-05 -7.55318567E-06
 -1.57902240E-05  8.72633763E-16  4.11845561E-16  5.03957652E-06  4.47071892E-06
  8.23439879E-05  3.17512500E-06 -4.69274935E-05 -5.12402647E-04 -7.54260237E-05
 -4.21995274E-17  1.61969014E-05  3.05503806E-05  2.44991998E-04  6.19578477E-16
  9.65662912E-07 -2.60802576E-04 -3.52530951E-05 -1.88322869E-05 -2.95428775E-06
  4.43092021E-16  4.58173998E-16 -2.17312705E-06  3.03289392E-05 -4.18169887E-04
  3.77826817E-06  8.68497374E-05 -1.37728967E-03 -1.28697478E-04 -3.14194392E-17
 -5.85843194E-05 -6.12963969E-05  4.10760782E-04 -5.91827537E-16  7.25859337E-04
  7.18571516E-04 -5.36670207E-05  2.16379003E-05 -7.66627092E-05 -1.50350820E-16
 -4.20463847E-16  8.65577782E-06 -3.33064029E-05 -1.82344205E-03 -4.57678903E-05
  2.32153280E-04  7.35057497E-04 -1.34623468E-05 -2.69607670E-16  3.85626249E-06
  1.00096887E-05  5.41206340E-04  2.69393786E-16 -2.42271792E-04  3.71462598E-04
 -3.58528703E-05 -1.91112296E-05  2.88286303E-05  6.00170473E-16 -4.45242247E-16
 -1.10455098E-05 -3.22772759E-05 -2.40025657E-05 -7.75169614E-06  1.89947472E-04
 -1.38674810E-01 -7.00684817E-03  5.95354582E-16 -5.15306155E-04  8.31876193E-05
  6.38220674E-03  4.79860791E-16  1.67493053E-03 -5.29417174E-04  1.10839502E-03
  6.62011697E-04  9.55806550E-04  1.48552755E-17 -4.34339223E-16  5.01160185E-05
 -1.53231870E-05 -3.66029277E-04 -1.93307151E-05 -6.93387963E-04  9.83482649E-01
  4.61461628E-02  5.43413304E-16 -2.23863637E-04  1.03031931E-05 -1.48398238E-02
 -1.08342991E-15  7.08595637E-04  5.76201130E-04 -8.50990457E-03 -7.69809118E-03
 -8.15697593E-03 -2.59134008E-17 -6.42950538E-16 -7.18384815E-05 -4.10373432E-04
  4.14087482E-03 -3.29327619E-04  2.26844334E-03  9.83247578E-01  4.63070987E-02
 -1.96146811E-16  1.71974940E-05 -2.39933383E-04 -1.65393387E-02  3.38843128E-16
 -5.63194128E-04  1.70389669E-03 -8.44541354E-03 -8.11521712E-03 -7.73665232E-03
  2.89239714E-16  3.58542384E-16 -6.60020386E-06 -4.46451445E-04  4.20588597E-03
 -4.43214262E-04  2.79666124E-03 -1.40532443E-01 -7.17667281E-03 -1.97160553E-16
  2.18045163E-06 -4.45212093E-04  7.87666108E-03  7.04611035E-17  1.86684222E-04
  2.49676319E-03  1.08613055E-03  9.51048791E-04  7.24015888E-04  9.21218402E-17
 -1.57619128E-16  1.43169658E-05 -3.94415568E-05 -3.81200763E-04 -5.48763729E-05
 -5.39699882E-04  2.63429266E-04 -4.92295830E-05 -1.19402875E-17  2.17962142E-06
  3.34196931E-05  5.37989207E-04  4.00393096E-16 -2.85086343E-04 -1.06565067E-04
 -5.93825076E-05 -2.02125710E-05 -3.24608545E-05 -1.04882236E-16 -3.27641767E-16
  3.12614460E-05 -2.99133779E-05 -1.27847490E-05  3.01207634E-06 -9.00426084E-04
  1.47945061E-03 -3.74724661E-05  8.34618768E-16  6.40472013E-06  5.50812756E-05
  1.09761834E-03 -7.31762472E-16  1.74256091E-04 -5.42775285E-04 -9.19730390E-05
 -3.81100220E-05 -3.73517754E-05 -1.79888373E-16 -1.17454886E-16 -2.34893147E-05
 -8.40170878E-07 -1.90810073E-03 -3.20759511E-05  9.73357965E-05 -1.04753604E-01
  1.98693199E-01  1.52536945E-15  4.13284784E-03 -4.04112204E-02  1.28847062E-01
 -7.47105130E-16 -8.80560525E-04  2.52199082E-02 -8.99746337E-03  2.07792074E-03
  5.56418335E-03  8.72670478E-17  2.45211454E-16  3.77917610E-04  7.49567367E-02
  2.73149987E-02  6.27291681E-02  1.72919498E-02 -8.98662548E-02  1.67824534E-01
  6.61773716E-16  8.20236996E-04  6.18872369E-02  1.55955587E-01 -1.96517408E-16
  2.01552183E-04  1.62545838E-02 -8.11628741E-03  8.94972166E-04  6.51752944E-03
 -1.39448779E-16  7.30490444E-17  1.32493857E-04  4.43349998E-02  9.09681774E-03
  4.47825396E-02  9.25781692E-03 -1.20207158E-01  2.26870600E-01 -5.31950319E-16
  7.29100874E-02 -2.09466183E-02  1.76319536E-01 -4.18091165E-16  3.09206654E-03
 -1.40019733E-03 -1.04652798E-02  7.10485611E-03  2.42664075E-03 -4.24098291E-16
 -4.86965155E-17 -1.25745247E-03  5.92262733E-02  1.07874738E-02  6.96932498E-02
  1.44976813E-02 -1.23738817E-01  2.32783371E-01 -1.22301757E-16 -7.21680780E-02
  4.62377857E-04  1.82835320E-01  6.64495064E-16 -1.27320726E-03 -4.67311025E-03
 -1.08385249E-02  6.57144769E-03  2.70781593E-03  5.33445181E-17  8.81672715E-17
 -6.81747648E-04  8.32561613E-02  1.30821584E-02  6.06664880E-02  1.16014446E-02
 -1.21601393E-01  2.30679937E-01 -8.21869473E-16 -9.68098055E-04 -8.86586318E-02
  1.79342229E-01  5.79724713E-16 -4.84938505E-03 -1.37762743E-02 -1.01293922E-02
  1.86885356E-03  7.81648041E-03 -1.45385490E-16  2.33983551E-16 -2.16924472E-04
  5.60435678E-02  1.81431703E-02  5.86406840E-02  8.52548661E-03 -1.29835473E-01
  2.46311280E-01 -1.11701719E-15 -1.27636872E-04  7.73380645E-02  1.86465663E-01
  6.09574784E-16  1.77310290E-03  7.47187139E-04 -1.10938689E-02  2.25772059E-03
  7.48320280E-03  6.08374082E-17  1.56874301E-16  3.27581588E-05  6.89128459E-02
  1.57961752E-02  6.87383811E-02  1.42834849E-02  1.01907360E-01 -1.93280680E-01
  1.15428515E-15 -6.32596574E-02  7.02786267E-03 -1.51866279E-01 -4.33008608E-16
 -8.01097631E-04 -2.91288463E-05  8.71884347E-03 -6.13125320E-03 -1.69914738E-03
 -3.22454185E-16  5.44425343E-16  8.42012390E-04 -5.47977006E-02 -1.18544991E-02
 -4.93221402E-02 -6.21918360E-03  9.94855236E-02 -1.88542991E-01 -9.88710619E-16
  6.43416309E-02 -1.74288570E-02 -1.47857654E-01 -4.33288514E-16  4.78110291E-03
 -2.78704245E-03  8.43222212E-03 -6.52543740E-03 -1.29687623E-03 -2.16837914E-16
 -6.36956189E-17  9.37811268E-04 -4.29059732E-02 -1.03404211E-02 -5.32023527E-02
 -1.20405291E-02  7.72917995E-02 -1.51902864E-01  3.03329808E-16 -4.02477363E-02
 -1.45453492E-01 -1.38104578E-01  2.81718859E-16 -1.56101660E-03 -6.37778046E-02
  6.03999141E-03 -1.06409879E-02  3.62960437E-03 -2.60206468E-16  1.86233221E-16
 -2.15838475E-03 -1.48896122E-01 -7.97480411E-02 -7.86442314E-02 -1.95170006E-02
 -9.46788088E-02  1.86818071E-01 -1.45053547E-16 -1.24668836E-02 -9.43060081E-02
  1.65026142E-01 -1.53779332E-16 -6.19719480E-03 -4.74037344E-02 -7.03751372E-03
  1.00970496E-02 -2.51189894E-03  3.99944534E-16  1.90549871E-16 -8.43624238E-04
  1.04402789E-01  4.28145921E-02  9.59803316E-02  4.07194197E-02 -9.37732868E-02
  1.83456907E-01 -4.49480737E-16 -6.76950536E-02  5.17820515E-02  1.87868850E-01
  3.60311721E-16 -3.44795273E-02  1.56352770E-02 -7.19028961E-03 -9.20775137E-04
  8.24641630E-03 -2.22251773E-16 -2.00675236E-16  2.16704774E-03  1.09533756E-01
  4.67424940E-02  7.18469947E-02  1.81847991E-02  5.78340132E-02 -1.12688717E-01
  6.34711478E-16 -1.19820626E-01  8.51346275E-02 -1.06876657E-01  1.59090426E-16
 -3.10247598E-02  3.06218358E-02  4.79935011E-03  5.49167294E-03 -1.00500253E-02
  2.77415827E-16  9.67339496E-17 -1.95802978E-03 -1.43449128E-01 -7.90135082E-02
 -5.47430812E-02 -2.75185749E-02  7.59609024E-02 -1.50015411E-01  8.39833241E-16
  3.43962791E-02 -1.09423050E-01 -1.40513715E-01 -1.20714890E-17 -9.81396502E-05
 -5.18783099E-02  5.59090389E-03 -9.76861466E-03  2.98514385E-03 -2.02047659E-16
  8.11945661E-17  1.91404481E-03 -6.40669163E-02 -1.32045309E-02 -1.18705294E-01
 -6.90108461E-02 -7.70603887E-02  1.52432732E-01  8.13888626E-16  1.17545407E-02
 -1.03845315E-01  1.39772132E-01 -2.70269522E-17  6.61203546E-03 -4.69980948E-02
 -5.66859466E-03  9.66562245E-03 -2.90150376E-03 -5.47170837E-17  1.65775215E-16
  6.54838650E-04  8.62030789E-02  3.90912173E-02  9.46601853E-02  4.10413235E-02
  7.97411314E-02 -1.56458031E-01  2.35296165E-17  1.53203635E-01  1.55970675E-02
 -1.52665023E-01 -4.22465495E-16  5.22402213E-02  8.88477459E-03  6.23027700E-03
  4.26685421E-03 -1.17254380E-02 -1.59700263E-16  4.57952563E-18 -3.86870911E-03
 -8.73566433E-02 -4.21108623E-02 -1.35218267E-01 -7.19170778E-02 -1.04277626E-01
  2.05123546E-01 -1.42470404E-16  1.12909192E-01  2.10092050E-02  2.06718767E-01
  1.44197662E-16  5.16058641E-02  3.16687984E-03 -7.62919577E-03 -1.43284989E-03
  1.03374739E-02 -4.77390542E-17  1.19447733E-16  2.92054432E-03  8.50368791E-02
  2.83505384E-02  1.29645543E-01  5.76794104E-02 -4.83070856E-02  9.65150029E-02
 -1.64333165E-16 -1.95747478E-01 -8.77615934E-02  1.14251778E-01 -1.03386463E-15
 -6.77734526E-02 -4.26528343E-02 -2.87235244E-03  8.04275360E-04  7.74939013E-04
  3.45549675E-17  2.14847603E-16 -5.35095543E-03 -1.13986553E-01 -8.92289714E-02
  9.78183466E-02  6.12420735E-02  1.97837218E-02 -3.70811658E-02 -9.69801220E-16
 -1.57204948E-01  1.80847246E-01 -8.06990005E-02  9.67876258E-16 -6.07742544E-02
  5.28445240E-02  1.81295947E-03 -9.86565422E-03  3.28020460E-03  2.31571070E-16
 -9.34458944E-17  1.35222388E-03 -1.68548260E-03 -1.17107656E-03 -1.45022861E-01
 -9.41432921E-02  1.15772704E-02 -2.43366092E-02 -1.42272072E-17  9.32274749E-02
  1.74576296E-01 -1.98461557E-02 -7.33107582E-16  4.10156309E-02  6.21524263E-02
  5.20971025E-04  4.94013747E-04 -3.45461251E-03  1.71103583E-17 -1.88232436E-16
 -2.13859001E-03  5.55566511E-02  3.92841521E-02 -1.08517562E-01 -6.90971599E-02
 -2.26756314E-02  4.53220036E-02 -5.14663970E-16  3.27534230E-02  2.49360750E-01
  4.85579270E-02 -3.44849690E-16  2.83371923E-02  9.24788480E-02 -1.25219568E-03