 Entering Gaussian System, Link 0=g16
 Input=dimer.gjf
 Output=dimer.out
 Initial command:
 C:\G16W\l1.exe ".\Gau-20608.inp" "dimer.out" /scrdir=".\"
 Entering Link 1 = C:\G16W\l1.exe PID=      7960.
  
 Copyright (c) 1988-2017, Gaussian, Inc.  All Rights Reserved.
  
 This is part of the Gaussian(R) 16 program.  It is based on
 the Gaussian(R) 09 system (copyright 2009, Gaussian, Inc.),
 the Gaussian(R) 03 system (copyright 2003, Gaussian, Inc.),
 the Gaussian(R) 98 system (copyright 1998, Gaussian, Inc.),
 the Gaussian(R) 94 system (copyright 1995, Gaussian, Inc.),
 the Gaussian 92(TM) system (copyright 1992, Gaussian, Inc.),
 the Gaussian 90(TM) system (copyright 1990, Gaussian, Inc.),
 the Gaussian 88(TM) system (copyright 1988, Gaussian, Inc.),
 the Gaussian 86(TM) system (copyright 1986, Carnegie Mellon
 University), and the Gaussian 82(TM) system (copyright 1983,
 Carnegie Mellon University). Gaussian is a federally registered
 trademark of Gaussian, Inc.
  
 This software contains proprietary and confidential information,
 including trade secrets, belonging to Gaussian, Inc.
  
 This software is provided under written license and may be
 used, copied, transmitted, or stored only in accord with that
 written license.
  
 The following legend is applicable only to US Government
 contracts under FAR:
  
                    RESTRICTED RIGHTS LEGEND
  
 Use, reproduction and disclosure by the US Government is
 subject to restrictions as set forth in subparagraphs (a)
 and (c) of the Commercial Computer Software - Restricted
 Rights clause in FAR 52.227-19.
  
 Gaussian, Inc.
 340 Quinnipiac St., Bldg. 40, Wallingford CT 06492
  
  
 ---------------------------------------------------------------
 Warning -- This program may not be used in any manner that
 competes with the business of Gaussian, Inc. or will provide
 assistance to any competitor of Gaussian, Inc.  The licensee
 of this program is prohibited from giving any competitor of
 Gaussian, Inc. access to this program.  By using this program,
 the user acknowledges that Gaussian, Inc. is engaged in the
 business of creating and licensing software in the field of
 computational chemistry and represents and warrants to the
 licensee that it is not a competitor of Gaussian, Inc. and that
 it will not use this program in any manner prohibited above.
 ---------------------------------------------------------------
  

 Cite this work as:
 Gaussian 16, Revision B.01,
 M. J. Frisch, G. W. Trucks, H. B. Schlegel, G. E. Scuseria, 
 M. A. Robb, J. R. Cheeseman, G. Scalmani, V. Barone, 
 G. A. Petersson, H. Nakatsuji, X. Li, M. Caricato, A. V. Marenich, 
 J. Bloino, B. G. Janesko, R. Gomperts, B. Mennucci, H. P. Hratchian, 
 J. V. Ortiz, A. F. Izmaylov, J. L. Sonnenberg, D. Williams-Young, 
 F. Ding, F. Lipparini, F. Egidi, J. Goings, B. Peng, A. Petrone, 
 T. Henderson, D. Ranasinghe, V. G. Zakrzewski, J. Gao, N. Rega, 
 G. Zheng, W. Liang, M. Hada, M. Ehara, K. Toyota, R. Fukuda, 
 J. Hasegawa, M. Ishida, T. Nakajima, Y. Honda, O. Kitao, H. Nakai, 
 T. Vreven, K. Throssell, J. A. Montgomery, Jr., J. E. Peralta, 
 F. Ogliaro, M. J. Bearpark, J. J. Heyd, E. N. Brothers, K. N. Kudin, 
 V. N. Staroverov, T. A. Keith, R. Kobayashi, J. Normand, 
 K. Raghavachari, A. P. Rendell, J. C. Burant, S. S. Iyengar, 
 J. Tomasi, M. Cossi, J. M. Millam, M. Klene, C. Adamo, R. Cammi, 
 J. W. Ochterski, R. L. Martin, K. Morokuma, O. Farkas, 
 J. B. Foresman, and D. J. Fox, Gaussian, Inc., Wallingford CT, 2016.
 
 ******************************************
 Gaussian 16:  EM64W-G16RevB.01 16-Dec-2017
                07-Mar-2026 
 ******************************************
 %CPU=0-7
 SetSPE:  set environment variable "MP_BIND" = "yes"
 SetSPE:  set environment variable "MP_BLIST" = "0,1,2,3,4,5,6,7"
 Will use up to    8 processors via shared memory.
 %Mem=8GB
 %chk=dimer.chk
 ----------------------------------------------------------------------
 #P wB97XD/ChkBasis IOp(3/33=1,3/32=2,5/33=3) NoSymmetry Guess=Read Geo
 m=AllCheck
 ----------------------------------------------------------------------
 1/29=7,38=1,172=1/1;
 2/12=2,15=1,40=1/2;
 3/5=7,6=2,11=2,14=-4,25=1,30=1,32=2,33=1,67=1,74=-58,116=-2/1,2,3;
 4/5=1/1;
 5/5=2,33=3,38=6/2;
 6/7=2,8=2,9=2,10=2,28=1/1;
 99/5=1,9=1/99;
 Leave Link    1 at Sat Mar 07 21:18:38 2026, MaxMem=  1073741824 cpu:               0.0 elap:               0.2
 (Enter C:\G16W\l101.exe)
 Structure from the checkpoint file:  "dimer.chk"
 -----------------
 monomer optimized
 -----------------
 Charge =  0 Multiplicity = 1
 No Z-Matrix found in chk file; cartesian coordinates used.
  C                                                 0.000000000000      0.000000000000      0.663949004933
  H                                                 0.000000000000      0.924516006467      1.235340004911
  H                                                 0.000000000000     -0.924516006467      1.235340004911
  C                                                 0.000000000000      0.000000000000     -0.663949004933
  H                                                 0.000000000000     -0.924516006467     -1.235340004911
  H                                                 0.000000000000      0.924516006467     -1.235340004911
  C                                                 0.000000000000     -0.453862122056      3.715293543722
  H                                                 0.000000000000     -0.856031892120      4.724985083251
  H                                                 0.000000000000     -1.177112937734      2.904044035092
  C                                                 0.000000000000      0.853862122677      3.484706484394
  H                                                 0.000000000000      1.256031897504      2.475014950157
  H                                                 0.000000000000      1.577112937826      4.295955998316
 Recover connectivity data from disk.
 ITRead=  0  0  0  0  0  0  0  0  0  0  0  0
 MicOpt= -1 -1 -1 -1 -1 -1 -1 -1 -1 -1 -1 -1
 NAtoms=     12 NQM=       12 NQMF=       0 NMMI=      0 NMMIF=      0
                NMic=       0 NMicF=      0.
                    Isotopes and Nuclear Properties:
 (Nuclear quadrupole moments (NQMom) in fm**2, nuclear magnetic moments (NMagM)
  in nuclear magnetons)

  Atom         1           2           3           4           5           6           7           8           9          10
 IAtWgt=          12           1           1          12           1           1          12           1           1          12
 AtmWgt=  12.0000000   1.0078250   1.0078250  12.0000000   1.0078250   1.0078250  12.0000000   1.0078250   1.0078250  12.0000000
 NucSpn=           0           1           1           0           1           1           0           1           1           0
 AtZEff=   3.6000000   1.0000000   1.0000000   3.6000000   1.0000000   1.0000000   3.6000000   1.0000000   1.0000000   3.6000000
 NQMom=    0.0000000   0.0000000   0.0000000   0.0000000   0.0000000   0.0000000   0.0000000   0.0000000   0.0000000   0.0000000
 NMagM=    0.0000000   2.7928460   2.7928460   0.0000000   2.7928460   2.7928460   0.0000000   2.7928460   2.7928460   0.0000000
 AtZNuc=   6.0000000   1.0000000   1.0000000   6.0000000   1.0000000   1.0000000   6.0000000   1.0000000   1.0000000   6.0000000

  Atom        11          12
 IAtWgt=           1           1
 AtmWgt=   1.0078250   1.0078250
 NucSpn=           1           1
 AtZEff=   1.0000000   1.0000000
 NQMom=    0.0000000   0.0000000
 NMagM=    2.7928460   2.7928460
 AtZNuc=   1.0000000   1.0000000
 Leave Link  101 at Sat Mar 07 21:18:39 2026, MaxMem=  1073741824 cpu:               1.0 elap:               0.4
 (Enter C:\G16W\l202.exe)
                          Input orientation:                          
 ---------------------------------------------------------------------
 Center     Atomic      Atomic             Coordinates (Angstroms)
 Number     Number       Type             X           Y           Z
 ---------------------------------------------------------------------
      1          6           0        0.000000    0.000000    0.663949
      2          1           0        0.000000    0.924516    1.235340
      3          1           0        0.000000   -0.924516    1.235340
      4          6           0        0.000000    0.000000   -0.663949
      5          1           0        0.000000   -0.924516   -1.235340
      6          1           0        0.000000    0.924516   -1.235340
      7          6           0        0.000000   -0.453862    3.715294
      8          1           0        0.000000   -0.856032    4.724985
      9          1           0        0.000000   -1.177113    2.904044
     10          6           0        0.000000    0.853862    3.484706
     11          1           0        0.000000    1.256032    2.475015
     12          1           0        0.000000    1.577113    4.295956
 ---------------------------------------------------------------------
                    Distance matrix (angstroms):
                    1          2          3          4          5
     1  C    0.000000
     2  H    1.086838   0.000000
     3  H    1.086838   1.849032   0.000000
     4  C    1.327898   2.112351   2.112351   0.000000
     5  H    2.112351   3.085965   2.470680   1.086838   0.000000
     6  H    2.112351   2.470680   3.085965   1.086838   1.849032
     7  C    3.084914   2.837269   2.524220   4.402699   4.972956
     8  H    4.150278   3.917649   3.490317   5.456501   5.960719
     9  H    2.530538   2.683546   1.687714   3.757149   4.147084
    10  C    2.947160   2.250476   2.867452   4.235614   5.043954
    11  H    2.203991   1.283237   2.508303   3.380933   4.303664
    12  H    3.959641   3.129417   3.952913   5.204608   6.070699
                    6          7          8          9         10
     6  H    0.000000
     7  C    5.138939   0.000000
     8  H    6.220597   1.086838   0.000000
     9  H    4.642343   1.086838   1.849032   0.000000
    10  C    4.720575   1.327898   2.112351   2.112351   0.000000
    11  H    3.725136   2.112351   3.085965   2.470680   1.086838
    12  H    5.569661   2.112351   2.470680   3.085965   1.086838
                   11         12
    11  H    0.000000
    12  H    1.849032   0.000000
 Symmetry turned off by external request.
 Stoichiometry    C4H8
 Framework group  CS[SG(C4H8)]
 Deg. of freedom    21
 Full point group                 CS      NOp   2
 Rotational constants (GHZ):          25.2663666           2.4950019           2.2707682
 Leave Link  202 at Sat Mar 07 21:18:39 2026, MaxMem=  1073741824 cpu:               0.0 elap:               0.7
 (Enter C:\G16W\l301.exe)
 Basis read from chk: "dimer.chk" (6D, 7F)
                         Coordinates in L301:                         
 ---------------------------------------------------------------------
 Center     Atomic      Atomic             Coordinates (Angstroms)
 Number     Number       Type             X           Y           Z
 ---------------------------------------------------------------------
      1          6           0        0.000000    0.000000    0.663949
      2          1           0        0.000000    0.924516    1.235340
      3          1           0        0.000000   -0.924516    1.235340
      4          6           0        0.000000    0.000000   -0.663949
      5          1           0        0.000000   -0.924516   -1.235340
      6          1           0        0.000000    0.924516   -1.235340
      7          6           0        0.000000   -0.453862    3.715294
      8          1           0        0.000000   -0.856032    4.724985
      9          1           0        0.000000   -1.177113    2.904044
     10          6           0        0.000000    0.853862    3.484706
     11          1           0        0.000000    1.256032    2.475015
     12          1           0        0.000000    1.577113    4.295956
 ---------------------------------------------------------------------
 No pseudopotential information found on chk file.
 LdAtmC:  AtmChg=     6.000000     1.000000     1.000000     6.000000     1.000000
 LdAtmC:  AtmChg=     1.000000     6.000000     1.000000     1.000000     6.000000
 LdAtmC:  AtmChg=     1.000000     1.000000
 AtZEff=     -3.6000000     -1.0000000     -1.0000000     -3.6000000     -1.0000000
 AtZEff=     -1.0000000     -3.6000000     -1.0000000     -1.0000000     -3.6000000
 AtZEff=     -1.0000000     -1.0000000
    76 basis functions,   144 primitive gaussians,    76 cartesian basis functions
    16 alpha electrons       16 beta electrons
       nuclear repulsion energy       105.5177386427 Hartrees.
 IS=     1 IAt=     1 ISR=     1 T=0 IP=      1 IndIP=      1 IndIPD=      0 C=  5.363452D-01  0.000000D+00                             NZ=T
 IS=     1 IAt=     1 ISR=     1 T=0 IP=      2 IndIP=      2 IndIPD=      1 C=  9.894521D-01  0.000000D+00                             NZ=T
 IS=     1 IAt=     1 ISR=     1 T=0 IP=      3 IndIP=      3 IndIPD=      2 C=  1.597283D+00  0.000000D+00                             NZ=T
 IS=     1 IAt=     1 ISR=     1 T=0 IP=      4 IndIP=      4 IndIPD=      3 C=  2.079187D+00  0.000000D+00                             NZ=T
 IS=     1 IAt=     1 ISR=     1 T=0 IP=      5 IndIP=      5 IndIPD=      4 C=  1.774174D+00  0.000000D+00                             NZ=T
 IS=     1 IAt=     1 ISR=     1 T=0 IP=      6 IndIP=      6 IndIPD=      5 C=  6.125797D-01  0.000000D+00                             NZ=T
 IS=     2 IAt=     1 ISR=     2 T=1 IP=      1 IndIP=      7 IndIPD=      0 C= -3.995564D-01  1.296082D+00                             NZ=T
 IS=     2 IAt=     1 ISR=     2 T=1 IP=      2 IndIP=      8 IndIPD=      1 C= -1.841552D-01  9.937536D-01                             NZ=T
 IS=     2 IAt=     1 ISR=     2 T=1 IP=      3 IndIP=      9 IndIPD=      2 C=  5.163903D-01  4.959527D-01                             NZ=T
 IS=     3 IAt=     1 ISR=     3 T=1 IP=      1 IndIP=     10 IndIPD=      0 C=  1.876179D-01  1.541276D-01                             NZ=T
 IS=     4 IAt=     1 ISR=     4 T=2 IP=      1 IndIP=     11 IndIPD=      1 C=  0.000000D+00  0.000000D+00  1.113825D+00  0.000000D+00 NZ=T
 IS=     5 IAt=     2 ISR=     1 T=0 IP=      1 IndIP=     12 IndIPD=      0 C=  2.149354D-01  0.000000D+00                             NZ=T
 IS=     5 IAt=     2 ISR=     1 T=0 IP=      2 IndIP=     13 IndIPD=      1 C=  3.645712D-01  0.000000D+00                             NZ=T
 IS=     5 IAt=     2 ISR=     1 T=0 IP=      3 IndIP=     14 IndIPD=      2 C=  4.150514D-01  0.000000D+00                             NZ=T
 IS=     6 IAt=     2 ISR=     2 T=0 IP=      1 IndIP=     15 IndIPD=      0 C=  1.813806D-01  0.000000D+00                             NZ=T
 IS=     7 IAt=     3 ISR=     1 T=0 IP=      1 IndIP=     16 IndIPD=      0 C=  2.149354D-01  0.000000D+00                             NZ=T
 IS=     7 IAt=     3 ISR=     1 T=0 IP=      2 IndIP=     17 IndIPD=      1 C=  3.645712D-01  0.000000D+00                             NZ=T
 IS=     7 IAt=     3 ISR=     1 T=0 IP=      3 IndIP=     18 IndIPD=      2 C=  4.150514D-01  0.000000D+00                             NZ=T
 IS=     8 IAt=     3 ISR=     2 T=0 IP=      1 IndIP=     19 IndIPD=      0 C=  1.813806D-01  0.000000D+00                             NZ=T
 IS=     9 IAt=     4 ISR=     1 T=0 IP=      1 IndIP=     20 IndIPD=      0 C=  5.363452D-01  0.000000D+00                             NZ=T
 IS=     9 IAt=     4 ISR=     1 T=0 IP=      2 IndIP=     21 IndIPD=      1 C=  9.894521D-01  0.000000D+00                             NZ=T
 IS=     9 IAt=     4 ISR=     1 T=0 IP=      3 IndIP=     22 IndIPD=      2 C=  1.597283D+00  0.000000D+00                             NZ=T
 IS=     9 IAt=     4 ISR=     1 T=0 IP=      4 IndIP=     23 IndIPD=      3 C=  2.079187D+00  0.000000D+00                             NZ=T
 IS=     9 IAt=     4 ISR=     1 T=0 IP=      5 IndIP=     24 IndIPD=      4 C=  1.774174D+00  0.000000D+00                             NZ=T
 IS=     9 IAt=     4 ISR=     1 T=0 IP=      6 IndIP=     25 IndIPD=      5 C=  6.125797D-01  0.000000D+00                             NZ=T
 IS=    10 IAt=     4 ISR=     2 T=1 IP=      1 IndIP=     26 IndIPD=      0 C= -3.995564D-01  1.296082D+00                             NZ=T
 IS=    10 IAt=     4 ISR=     2 T=1 IP=      2 IndIP=     27 IndIPD=      1 C= -1.841552D-01  9.937536D-01                             NZ=T
 IS=    10 IAt=     4 ISR=     2 T=1 IP=      3 IndIP=     28 IndIPD=      2 C=  5.163903D-01  4.959527D-01                             NZ=T
 IS=    11 IAt=     4 ISR=     3 T=1 IP=      1 IndIP=     29 IndIPD=      0 C=  1.876179D-01  1.541276D-01                             NZ=T
 IS=    12 IAt=     4 ISR=     4 T=2 IP=      1 IndIP=     30 IndIPD=      2 C=  0.000000D+00  0.000000D+00  1.113825D+00  0.000000D+00 NZ=T
 IS=    13 IAt=     5 ISR=     1 T=0 IP=      1 IndIP=     31 IndIPD=      0 C=  2.149354D-01  0.000000D+00                             NZ=T
 IS=    13 IAt=     5 ISR=     1 T=0 IP=      2 IndIP=     32 IndIPD=      1 C=  3.645712D-01  0.000000D+00                             NZ=T
 IS=    13 IAt=     5 ISR=     1 T=0 IP=      3 IndIP=     33 IndIPD=      2 C=  4.150514D-01  0.000000D+00                             NZ=T
 IS=    14 IAt=     5 ISR=     2 T=0 IP=      1 IndIP=     34 IndIPD=      0 C=  1.813806D-01  0.000000D+00                             NZ=T
 IS=    15 IAt=     6 ISR=     1 T=0 IP=      1 IndIP=     35 IndIPD=      0 C=  2.149354D-01  0.000000D+00                             NZ=T
 IS=    15 IAt=     6 ISR=     1 T=0 IP=      2 IndIP=     36 IndIPD=      1 C=  3.645712D-01  0.000000D+00                             NZ=T
 IS=    15 IAt=     6 ISR=     1 T=0 IP=      3 IndIP=     37 IndIPD=      2 C=  4.150514D-01  0.000000D+00                             NZ=T
 IS=    16 IAt=     6 ISR=     2 T=0 IP=      1 IndIP=     38 IndIPD=      0 C=  1.813806D-01  0.000000D+00                             NZ=T
 IS=    17 IAt=     7 ISR=     1 T=0 IP=      1 IndIP=     39 IndIPD=      0 C=  5.363452D-01  0.000000D+00                             NZ=T
 IS=    17 IAt=     7 ISR=     1 T=0 IP=      2 IndIP=     40 IndIPD=      1 C=  9.894521D-01  0.000000D+00                             NZ=T
 IS=    17 IAt=     7 ISR=     1 T=0 IP=      3 IndIP=     41 IndIPD=      2 C=  1.597283D+00  0.000000D+00                             NZ=T
 IS=    17 IAt=     7 ISR=     1 T=0 IP=      4 IndIP=     42 IndIPD=      3 C=  2.079187D+00  0.000000D+00                             NZ=T
 IS=    17 IAt=     7 ISR=     1 T=0 IP=      5 IndIP=     43 IndIPD=      4 C=  1.774174D+00  0.000000D+00                             NZ=T
 IS=    17 IAt=     7 ISR=     1 T=0 IP=      6 IndIP=     44 IndIPD=      5 C=  6.125797D-01  0.000000D+00                             NZ=T
 IS=    18 IAt=     7 ISR=     2 T=1 IP=      1 IndIP=     45 IndIPD=      0 C= -3.995564D-01  1.296082D+00                             NZ=T
 IS=    18 IAt=     7 ISR=     2 T=1 IP=      2 IndIP=     46 IndIPD=      1 C= -1.841552D-01  9.937536D-01                             NZ=T
 IS=    18 IAt=     7 ISR=     2 T=1 IP=      3 IndIP=     47 IndIPD=      2 C=  5.163903D-01  4.959527D-01                             NZ=T
 IS=    19 IAt=     7 ISR=     3 T=1 IP=      1 IndIP=     48 IndIPD=      0 C=  1.876179D-01  1.541276D-01                             NZ=T
 IS=    20 IAt=     7 ISR=     4 T=2 IP=      1 IndIP=     49 IndIPD=      3 C=  0.000000D+00  0.000000D+00  1.113825D+00  0.000000D+00 NZ=T
 IS=    21 IAt=     8 ISR=     1 T=0 IP=      1 IndIP=     50 IndIPD=      0 C=  2.149354D-01  0.000000D+00                             NZ=T
 IS=    21 IAt=     8 ISR=     1 T=0 IP=      2 IndIP=     51 IndIPD=      1 C=  3.645712D-01  0.000000D+00                             NZ=T
 IS=    21 IAt=     8 ISR=     1 T=0 IP=      3 IndIP=     52 IndIPD=      2 C=  4.150514D-01  0.000000D+00                             NZ=T
 IS=    22 IAt=     8 ISR=     2 T=0 IP=      1 IndIP=     53 IndIPD=      0 C=  1.813806D-01  0.000000D+00                             NZ=T
 IS=    23 IAt=     9 ISR=     1 T=0 IP=      1 IndIP=     54 IndIPD=      0 C=  2.149354D-01  0.000000D+00                             NZ=T
 IS=    23 IAt=     9 ISR=     1 T=0 IP=      2 IndIP=     55 IndIPD=      1 C=  3.645712D-01  0.000000D+00                             NZ=T
 IS=    23 IAt=     9 ISR=     1 T=0 IP=      3 IndIP=     56 IndIPD=      2 C=  4.150514D-01  0.000000D+00                             NZ=T
 IS=    24 IAt=     9 ISR=     2 T=0 IP=      1 IndIP=     57 IndIPD=      0 C=  1.813806D-01  0.000000D+00                             NZ=T
 IS=    25 IAt=    10 ISR=     1 T=0 IP=      1 IndIP=     58 IndIPD=      0 C=  5.363452D-01  0.000000D+00                             NZ=T
 IS=    25 IAt=    10 ISR=     1 T=0 IP=      2 IndIP=     59 IndIPD=      1 C=  9.894521D-01  0.000000D+00                             NZ=T
 IS=    25 IAt=    10 ISR=     1 T=0 IP=      3 IndIP=     60 IndIPD=      2 C=  1.597283D+00  0.000000D+00                             NZ=T
 IS=    25 IAt=    10 ISR=     1 T=0 IP=      4 IndIP=     61 IndIPD=      3 C=  2.079187D+00  0.000000D+00                             NZ=T
 IS=    25 IAt=    10 ISR=     1 T=0 IP=      5 IndIP=     62 IndIPD=      4 C=  1.774174D+00  0.000000D+00                             NZ=T
 IS=    25 IAt=    10 ISR=     1 T=0 IP=      6 IndIP=     63 IndIPD=      5 C=  6.125797D-01  0.000000D+00                             NZ=T
 IS=    26 IAt=    10 ISR=     2 T=1 IP=      1 IndIP=     64 IndIPD=      0 C= -3.995564D-01  1.296082D+00                             NZ=T
 IS=    26 IAt=    10 ISR=     2 T=1 IP=      2 IndIP=     65 IndIPD=      1 C= -1.841552D-01  9.937536D-01                             NZ=T
 IS=    26 IAt=    10 ISR=     2 T=1 IP=      3 IndIP=     66 IndIPD=      2 C=  5.163903D-01  4.959527D-01                             NZ=T
 IS=    27 IAt=    10 ISR=     3 T=1 IP=      1 IndIP=     67 IndIPD=      0 C=  1.876179D-01  1.541276D-01                             NZ=T
 IS=    28 IAt=    10 ISR=     4 T=2 IP=      1 IndIP=     68 IndIPD=      4 C=  0.000000D+00  0.000000D+00  1.113825D+00  0.000000D+00 NZ=T
 IS=    29 IAt=    11 ISR=     1 T=0 IP=      1 IndIP=     69 IndIPD=      0 C=  2.149354D-01  0.000000D+00                             NZ=T
 IS=    29 IAt=    11 ISR=     1 T=0 IP=      2 IndIP=     70 IndIPD=      1 C=  3.645712D-01  0.000000D+00                             NZ=T
 IS=    29 IAt=    11 ISR=     1 T=0 IP=      3 IndIP=     71 IndIPD=      2 C=  4.150514D-01  0.000000D+00                             NZ=T
 IS=    30 IAt=    11 ISR=     2 T=0 IP=      1 IndIP=     72 IndIPD=      0 C=  1.813806D-01  0.000000D+00                             NZ=T
 IS=    31 IAt=    12 ISR=     1 T=0 IP=      1 IndIP=     73 IndIPD=      0 C=  2.149354D-01  0.000000D+00                             NZ=T
 IS=    31 IAt=    12 ISR=     1 T=0 IP=      2 IndIP=     74 IndIPD=      1 C=  3.645712D-01  0.000000D+00                             NZ=T
 IS=    31 IAt=    12 ISR=     1 T=0 IP=      3 IndIP=     75 IndIPD=      2 C=  4.150514D-01  0.000000D+00                             NZ=T
 IS=    32 IAt=    12 ISR=     2 T=0 IP=      1 IndIP=     76 IndIPD=      0 C=  1.813806D-01  0.000000D+00                             NZ=T
 IExCor= 4639 DFT=T Ex+Corr=wB97XD ExCW=0 ScaHFX=  1.000000
 ScaDFX=  1.000000  1.000000  1.000000  1.000000 ScalE2=  1.000000  1.000000
 IRadAn=      5 IRanWt=     -1 IRanGd=            0 ICorTp=0 IEmpDi=121
 HFx  wShort=  0.000000 wLong=  0.200000 cFull=  0.222036 cShort=  0.000000 cLong=  0.777964
 DFx  wShort=  0.000000 wLong=  0.200000 cFull=  0.000000 cShort=  0.000000 cLong=  1.000000
 NAtoms=   12 NActive=   12 NUniq=   12 SFac= 1.00D+00 NAtFMM=   60 NAOKFM=F Big=F
 Integral buffers will be    131072 words long.
 Raffenetti 2 integral format.
 Two-electron integral symmetry is turned off.
 R6Disp:  Grimme-D2 Dispersion energy=       -0.0038358742 Hartrees.
 Nuclear repulsion after empirical dispersion term =      105.5139027684 Hartrees.
 No density basis found on file 20724.
 Leave Link  301 at Sat Mar 07 21:18:40 2026, MaxMem=  1073741824 cpu:               1.0 elap:               0.3
 (Enter C:\G16W\l302.exe)
 NPDir=0 NMtPBC=     1 NCelOv=     1 NCel=       1 NClECP=     1 NCelD=      1
         NCelK=      1 NCelE2=     1 NClLst=     1 CellRange=     0.0.
 One-electron integrals computed using PRISM.
 Entering OneElI...
 Calculate overlap and kinetic energy integrals
    NBasis =  76  MinDer = 0  MaxDer = 0
 Requested accuracy = 0.1000D-12
 PrmmSu-InSpLW:  IPartL=    0 NPrtUS=    8 NPrtUL=    1 DoSpLW=F IThBeg=    0 IThEnd=    7 NThAct=    8.
 PrSmSu:  IncTry=   512 NBBP=            520 NTPThr=   100 NPartT=    8 Incr=           1 LDynOK=F GPUOK=F.
 PrsmSu:  NPrtUS=   8 ThrOK=T IAlg=1 LenDen=           0 ISkipM=0 DoSpLW=F IThBeg=    0 IThEnd=    7.
 Prism:   IPart=     0 DynPar=F LinDyn=F Incr=           1.
 PRISM was handed   134188125 working-precision words and   520 shell-pairs
 PRISM was handed   134188125 working-precision words and   520 shell-pairs
 IPart=  1 NShTot=          75 NBatch=          31 AvBLen=         2.4
 IPart=  0 NShTot=          81 NBatch=          34 AvBLen=         2.4
 PRISM was handed   134188125 working-precision words and   520 shell-pairs
 IPart=  4 NShTot=          61 NBatch=          23 AvBLen=         2.7
 PRISM was handed   134188125 working-precision words and   520 shell-pairs
 PRISM was handed   134188125 working-precision words and   520 shell-pairs
 PRISM was handed   134188125 working-precision words and   520 shell-pairs
 PRISM was handed   134188125 working-precision words and   520 shell-pairs
 IPart=  2 NShTot=          66 NBatch=          26 AvBLen=         2.5
 IPart=  5 NShTot=          61 NBatch=          23 AvBLen=         2.7
 IPart=  7 NShTot=          55 NBatch=          21 AvBLen=         2.6
 IPart=  6 NShTot=          57 NBatch=          22 AvBLen=         2.6
 PRISM was handed   134188125 working-precision words and   520 shell-pairs
 IPart=  3 NShTot=          64 NBatch=          25 AvBLen=         2.6
 PrSmSu:  NxtVal=              9.
 *** Overlap *** 
                1             2             3             4             5 
      1  0.100000D+01
      2  0.219059D+00  0.100000D+01
      3  0.000000D+00  0.000000D+00  0.100000D+01
      4  0.000000D+00  0.000000D+00  0.000000D+00  0.100000D+01
      5  0.000000D+00  0.000000D+00  0.000000D+00  0.000000D+00  0.100000D+01
      6  0.184261D+00  0.812273D+00  0.000000D+00  0.000000D+00  0.000000D+00
      7  0.000000D+00  0.000000D+00  0.569754D+00  0.000000D+00  0.000000D+00
      8  0.000000D+00  0.000000D+00  0.000000D+00  0.569754D+00  0.000000D+00
      9  0.000000D+00  0.000000D+00  0.000000D+00  0.000000D+00  0.569754D+00
     10  0.791027D-01  0.710235D+00  0.000000D+00  0.000000D+00  0.000000D+00
     11  0.791027D-01  0.710235D+00  0.000000D+00  0.000000D+00  0.000000D+00
     12  0.791027D-01  0.710235D+00  0.000000D+00  0.000000D+00  0.000000D+00
     13  0.000000D+00  0.000000D+00  0.000000D+00  0.000000D+00  0.000000D+00
     14  0.000000D+00  0.000000D+00  0.000000D+00  0.000000D+00  0.000000D+00
     15  0.000000D+00  0.000000D+00  0.000000D+00  0.000000D+00  0.000000D+00
     16  0.331977D-01  0.275683D+00  0.000000D+00  0.315893D+00  0.195236D+00
     17  0.925559D-01  0.477571D+00  0.000000D+00  0.226114D+00  0.139748D+00
     18  0.331977D-01  0.275683D+00  0.000000D+00 -0.315893D+00  0.195236D+00
     19  0.925559D-01  0.477571D+00  0.000000D+00 -0.226114D+00  0.139748D+00
     20  0.629190D-05  0.211388D-01  0.000000D+00  0.000000D+00 -0.457307D-01
     21  0.211388D-01  0.212250D+00  0.000000D+00  0.000000D+00 -0.291664D+00
     22  0.000000D+00  0.000000D+00  0.121812D+00  0.000000D+00  0.000000D+00
     23  0.000000D+00  0.000000D+00  0.000000D+00  0.121812D+00  0.000000D+00
     24  0.457307D-01  0.291664D+00  0.000000D+00  0.000000D+00 -0.339693D+00
     25  0.661470D-01  0.367065D+00  0.000000D+00  0.000000D+00 -0.255795D+00
     26  0.000000D+00  0.000000D+00  0.248172D+00  0.000000D+00  0.000000D+00
     27  0.000000D+00  0.000000D+00  0.000000D+00  0.248172D+00  0.000000D+00
     28  0.131470D+00  0.566876D+00  0.000000D+00  0.000000D+00 -0.163611D+00
     29  0.126402D-02  0.979583D-01  0.000000D+00  0.000000D+00 -0.148374D+00
     30  0.126402D-02  0.979583D-01  0.000000D+00  0.000000D+00 -0.148374D+00
     31  0.575356D-01  0.345156D+00  0.000000D+00  0.000000D+00 -0.421304D+00
     32  0.000000D+00  0.000000D+00  0.000000D+00  0.000000D+00  0.000000D+00
     33  0.000000D+00  0.000000D+00  0.192075D+00  0.000000D+00  0.000000D+00
     34  0.000000D+00  0.000000D+00  0.000000D+00  0.192075D+00  0.000000D+00
     35  0.503906D-04  0.859474D-02  0.000000D+00 -0.803221D-02 -0.165011D-01
     36  0.149315D-01  0.113818D+00  0.000000D+00 -0.511065D-01 -0.104991D+00
     37  0.503906D-04  0.859474D-02  0.000000D+00  0.803221D-02 -0.165011D-01
     38  0.149315D-01  0.113818D+00  0.000000D+00  0.511065D-01 -0.104991D+00
     39  0.000000D+00  0.000000D+00  0.000000D+00  0.000000D+00  0.000000D+00
     40  0.000000D+00  0.125739D-03  0.000000D+00 -0.518886D-04  0.348850D-03
     41  0.000000D+00  0.000000D+00  0.535243D-04  0.000000D+00  0.000000D+00
     42  0.000000D+00  0.518886D-04  0.000000D+00  0.320566D-04  0.144329D-03
     43  0.000000D+00 -0.348850D-03  0.000000D+00  0.144329D-03 -0.916808D-03
     44  0.734439D-03  0.108526D-01  0.000000D+00 -0.232811D-02  0.156521D-01
     45  0.000000D+00  0.000000D+00  0.660854D-02  0.000000D+00  0.000000D+00
     46  0.498181D-03  0.578991D-02  0.000000D+00  0.534169D-02  0.851708D-02
     47 -0.334930D-02 -0.389260D-01  0.000000D+00  0.851708D-02 -0.506523D-01
     48  0.000000D+00  0.126692D-04  0.000000D+00 -0.621124D-05  0.417586D-04
     49  0.000000D+00  0.167760D-04  0.000000D+00  0.000000D+00  0.552998D-04
     50  0.000000D+00  0.198293D-03  0.000000D+00 -0.972499D-04  0.596992D-03
     51  0.000000D+00  0.000000D+00  0.731992D-05  0.000000D+00  0.000000D+00
     52  0.000000D+00  0.000000D+00 -0.492123D-04  0.000000D+00  0.000000D+00
     53  0.000000D+00 -0.478218D-04  0.000000D+00 -0.257582D-04 -0.150364D-03
     54  0.000000D+00  0.000000D+00  0.000000D+00  0.000000D+00  0.000000D+00
     55  0.124757D-04  0.409938D-03  0.000000D+00 -0.153240D-03  0.726974D-03
     56  0.115177D-05  0.111285D-02  0.000000D+00 -0.129632D-02  0.246695D-02
     57  0.507489D-02  0.485521D-01  0.000000D+00 -0.270769D-01  0.515285D-01
     58  0.000000D+00  0.000000D+00  0.000000D+00  0.000000D+00  0.000000D+00
     59  0.000000D+00  0.281726D-03  0.000000D+00  0.218963D-03  0.723350D-03
     60  0.000000D+00  0.000000D+00  0.120239D-03  0.000000D+00  0.000000D+00
     61  0.000000D+00 -0.218963D-03  0.000000D+00 -0.506246D-04 -0.564451D-03
     62  0.000000D+00 -0.723350D-03  0.000000D+00 -0.564451D-03 -0.174444D-02
     63  0.118930D-02  0.158528D-01  0.000000D+00  0.644850D-02  0.213028D-01
     64  0.000000D+00  0.000000D+00  0.972962D-02  0.000000D+00  0.000000D+00
     65 -0.151794D-02 -0.158996D-01  0.000000D+00  0.312228D-02 -0.218275D-01
     66 -0.501454D-02 -0.525247D-01  0.000000D+00 -0.218275D-01 -0.623783D-01
     67  0.000000D+00  0.331245D-04  0.000000D+00  0.305544D-04  0.100937D-03
     68  0.000000D+00  0.711242D-04  0.000000D+00  0.240481D-04  0.216820D-03
     69  0.000000D+00  0.447827D-03  0.000000D+00  0.413375D-03  0.122822D-02
     70  0.000000D+00  0.000000D+00 -0.360134D-04  0.000000D+00  0.000000D+00
     71  0.000000D+00  0.000000D+00 -0.118971D-03  0.000000D+00  0.000000D+00
     72  0.000000D+00  0.217430D-03  0.000000D+00  0.817429D-04  0.627051D-03
     73  0.232678D-04  0.566502D-02  0.000000D+00  0.714505D-02  0.103024D-01
     74  0.119843D-01  0.956992D-01  0.000000D+00  0.580643D-01  0.837226D-01
     75  0.000000D+00  0.000000D+00  0.000000D+00  0.000000D+00  0.000000D+00
     76  0.294165D-04  0.812376D-03  0.000000D+00  0.563664D-03  0.129809D-02
                6             7             8             9            10 
      6  0.100000D+01
      7  0.000000D+00  0.100000D+01
      8  0.000000D+00  0.000000D+00  0.100000D+01
      9  0.000000D+00  0.000000D+00  0.000000D+00  0.100000D+01
     10  0.629936D+00  0.000000D+00  0.000000D+00  0.000000D+00  0.100000D+01
     11  0.629936D+00  0.000000D+00  0.000000D+00  0.000000D+00  0.333333D+00
     12  0.629936D+00  0.000000D+00  0.000000D+00  0.000000D+00  0.333333D+00
     13  0.000000D+00  0.000000D+00  0.000000D+00  0.000000D+00  0.000000D+00
     14  0.000000D+00  0.000000D+00  0.000000D+00  0.000000D+00  0.000000D+00
     15  0.000000D+00  0.000000D+00  0.000000D+00  0.000000D+00  0.000000D+00
     16  0.378304D+00  0.000000D+00  0.438291D+00  0.270883D+00  0.118668D+00
     17  0.705959D+00  0.000000D+00  0.495188D+00  0.306047D+00  0.352450D+00
     18  0.378304D+00  0.000000D+00 -0.438291D+00  0.270883D+00  0.118668D+00
     19  0.705959D+00  0.000000D+00 -0.495188D+00  0.306047D+00  0.352450D+00
     20  0.661470D-01  0.000000D+00  0.000000D+00 -0.131470D+00  0.126402D-02
     21  0.367065D+00  0.000000D+00  0.000000D+00 -0.566876D+00  0.979583D-01
     22  0.000000D+00  0.248172D+00  0.000000D+00  0.000000D+00  0.000000D+00
     23  0.000000D+00  0.000000D+00  0.248172D+00  0.000000D+00  0.000000D+00
     24  0.255795D+00  0.000000D+00  0.000000D+00 -0.163611D+00  0.148374D+00
     25  0.587905D+00  0.000000D+00  0.000000D+00 -0.605964D+00  0.261980D+00
     26  0.000000D+00  0.587905D+00  0.000000D+00  0.000000D+00  0.000000D+00
     27  0.000000D+00  0.000000D+00  0.587905D+00  0.000000D+00  0.000000D+00
     28  0.605964D+00  0.000000D+00  0.000000D+00 -0.366730D-01  0.445997D+00
     29  0.261980D+00  0.000000D+00  0.000000D+00 -0.445997D+00  0.805593D-01
     30  0.261980D+00  0.000000D+00  0.000000D+00 -0.445997D+00  0.268531D-01
     31  0.358927D+00  0.000000D+00  0.000000D+00 -0.422925D+00  0.162126D+00
     32  0.000000D+00  0.000000D+00  0.000000D+00  0.000000D+00  0.000000D+00
     33  0.000000D+00  0.162913D+00  0.000000D+00  0.000000D+00  0.000000D+00
     34  0.000000D+00  0.000000D+00  0.162913D+00  0.000000D+00  0.000000D+00
     35  0.770162D-01  0.000000D+00 -0.888043D-01 -0.182436D+00  0.179224D-02
     36  0.268675D+00  0.000000D+00 -0.188459D+00 -0.387163D+00  0.731415D-01
     37  0.770162D-01  0.000000D+00  0.888043D-01 -0.182436D+00  0.179224D-02
     38  0.268675D+00  0.000000D+00  0.188459D+00 -0.387163D+00  0.731415D-01
     39  0.734439D-03  0.000000D+00 -0.498181D-03  0.334930D-02  0.000000D+00
     40  0.108526D-01  0.000000D+00 -0.578991D-02  0.389260D-01  0.126692D-04
     41  0.000000D+00  0.660854D-02  0.000000D+00  0.000000D+00  0.000000D+00
     42  0.232811D-02  0.000000D+00  0.534169D-02  0.851708D-02  0.621124D-05
     43 -0.156521D-01  0.000000D+00  0.851708D-02 -0.506523D-01 -0.417586D-04
     44  0.568773D-01  0.000000D+00 -0.200373D-01  0.134712D+00  0.553175D-02
     45  0.000000D+00  0.568773D-01  0.000000D+00  0.000000D+00  0.000000D+00
     46  0.200373D-01  0.000000D+00  0.498184D-01  0.474575D-01  0.321874D-02
     47 -0.134712D+00  0.000000D+00  0.474575D-01 -0.262182D+00 -0.216398D-01
     48  0.553175D-02  0.000000D+00 -0.321874D-02  0.216398D-01  0.124809D-05
     49  0.577089D-02  0.000000D+00 -0.200027D-02  0.225753D-01  0.000000D+00
     50  0.163407D-01  0.000000D+00 -0.950808D-02  0.547961D-01  0.114822D-04
     51  0.000000D+00  0.117573D-02  0.000000D+00  0.000000D+00  0.000000D+00
     52  0.000000D+00 -0.790454D-02  0.000000D+00  0.000000D+00  0.000000D+00
     53 -0.278468D-02  0.000000D+00 -0.628422D-02 -0.971773D-02 -0.285095D-05
     54  0.165788D-03  0.000000D+00 -0.175216D-03  0.831230D-03  0.000000D+00
     55  0.626778D-02  0.000000D+00 -0.407080D-02  0.193120D-01  0.161236D-03
     56  0.301237D-01  0.000000D+00 -0.441229D-01  0.839678D-01  0.152119D-03
     57  0.151682D+00  0.000000D+00 -0.135465D+00  0.257796D+00  0.288404D-01
     58  0.118930D-02  0.000000D+00  0.151794D-02  0.501454D-02  0.000000D+00
     59  0.158528D-01  0.000000D+00  0.158996D-01  0.525247D-01  0.331245D-04
     60  0.000000D+00  0.972962D-02  0.000000D+00  0.000000D+00  0.000000D+00
     61 -0.644850D-02  0.000000D+00  0.312228D-02 -0.218275D-01 -0.305544D-04
     62 -0.213028D-01  0.000000D+00 -0.218275D-01 -0.623783D-01 -0.100937D-03
     63  0.730551D-01  0.000000D+00  0.484187D-01  0.159953D+00  0.836409D-02
     64  0.000000D+00  0.730551D-01  0.000000D+00  0.000000D+00  0.000000D+00
     65 -0.484187D-01  0.000000D+00  0.409646D-01 -0.106012D+00 -0.915599D-02
     66 -0.159953D+00  0.000000D+00 -0.106012D+00 -0.277158D+00 -0.302471D-01
     67  0.836409D-02  0.000000D+00  0.915599D-02  0.302471D-01  0.409004D-05
     68  0.964385D-02  0.000000D+00  0.669506D-02  0.348751D-01  0.420303D-05
     69  0.223306D-01  0.000000D+00  0.244448D-01  0.679963D-01  0.323536D-04
     70  0.000000D+00 -0.334448D-02  0.000000D+00  0.000000D+00  0.000000D+00
     71  0.000000D+00 -0.110486D-01  0.000000D+00  0.000000D+00  0.000000D+00
     72  0.732267D-02  0.000000D+00 -0.303261D-02  0.231365D-01  0.162483D-04
     73  0.635993D-01  0.000000D+00  0.995805D-01  0.143585D+00  0.108415D-02
     74  0.239136D+00  0.000000D+00  0.227888D+00  0.328590D+00  0.605099D-01
     75  0.347849D-03  0.000000D+00  0.677801D-03  0.156094D-02  0.000000D+00
     76  0.988150D-02  0.000000D+00  0.118239D-01  0.272299D-01  0.338288D-03
               11            12            13            14            15 
     11  0.100000D+01
     12  0.333333D+00  0.100000D+01
     13  0.000000D+00  0.000000D+00  0.100000D+01
     14  0.000000D+00  0.000000D+00  0.000000D+00  0.100000D+01
     15  0.000000D+00  0.000000D+00  0.000000D+00  0.000000D+00  0.100000D+01
     16  0.364579D+00  0.212600D+00  0.000000D+00  0.000000D+00  0.263244D+00
     17  0.410668D+00  0.374688D+00  0.000000D+00  0.000000D+00  0.623210D-01
     18  0.364579D+00  0.212600D+00  0.000000D+00  0.000000D+00 -0.263244D+00
     19  0.410668D+00  0.374688D+00  0.000000D+00  0.000000D+00 -0.623210D-01
     20  0.126402D-02  0.575356D-01  0.000000D+00  0.000000D+00  0.000000D+00
     21  0.979583D-01  0.345156D+00  0.000000D+00  0.000000D+00  0.000000D+00
     22  0.000000D+00  0.000000D+00  0.000000D+00 -0.192075D+00  0.000000D+00
     23  0.000000D+00  0.000000D+00  0.000000D+00  0.000000D+00 -0.192075D+00
     24  0.148374D+00  0.421304D+00  0.000000D+00  0.000000D+00  0.000000D+00
     25  0.261980D+00  0.358927D+00  0.000000D+00  0.000000D+00  0.000000D+00
     26  0.000000D+00  0.000000D+00  0.000000D+00 -0.162913D+00  0.000000D+00
     27  0.000000D+00  0.000000D+00  0.000000D+00  0.000000D+00 -0.162913D+00
     28  0.445997D+00  0.422925D+00  0.000000D+00  0.000000D+00  0.000000D+00
     29  0.268531D-01  0.162126D+00  0.000000D+00  0.000000D+00  0.000000D+00
     30  0.805593D-01  0.162126D+00  0.000000D+00  0.000000D+00  0.000000D+00
     31  0.162126D+00  0.491455D+00  0.000000D+00  0.000000D+00  0.000000D+00
     32  0.000000D+00  0.000000D+00  0.805593D-01  0.000000D+00  0.000000D+00
     33  0.000000D+00  0.000000D+00  0.000000D+00 -0.325260D+00  0.000000D+00
     34  0.000000D+00  0.000000D+00  0.000000D+00  0.000000D+00 -0.325260D+00
     35  0.493107D-02  0.150394D-01  0.000000D+00  0.000000D+00  0.111688D-01
     36  0.852230D-01  0.124130D+00  0.000000D+00  0.000000D+00  0.429890D-01
     37  0.493107D-02  0.150394D-01  0.000000D+00  0.000000D+00 -0.111688D-01
     38  0.852230D-01  0.124130D+00  0.000000D+00  0.000000D+00 -0.429890D-01
     39  0.000000D+00  0.000000D+00  0.000000D+00  0.000000D+00  0.000000D+00
     40  0.167760D-04  0.198293D-03  0.000000D+00  0.000000D+00 -0.478218D-04
     41  0.000000D+00  0.000000D+00 -0.731992D-05  0.492123D-04  0.000000D+00
     42  0.000000D+00  0.972499D-04  0.000000D+00  0.000000D+00  0.257582D-04
     43 -0.552998D-04 -0.596992D-03  0.000000D+00  0.000000D+00  0.150364D-03
     44  0.577089D-02  0.163407D-01  0.000000D+00  0.000000D+00 -0.278468D-02
     45  0.000000D+00  0.000000D+00 -0.117573D-02  0.790454D-02  0.000000D+00
     46  0.200027D-02  0.950808D-02  0.000000D+00  0.000000D+00  0.628422D-02
     47 -0.225753D-01 -0.547961D-01  0.000000D+00  0.000000D+00  0.971773D-02
     48  0.000000D+00  0.114822D-04  0.000000D+00  0.000000D+00 -0.285095D-05
     49  0.000000D+00  0.182393D-04  0.000000D+00  0.000000D+00  0.117321D-05
     50  0.182393D-04  0.273467D-03  0.000000D+00  0.000000D+00 -0.729823D-04
     51  0.000000D+00  0.000000D+00  0.000000D+00  0.493799D-05  0.000000D+00
     52  0.000000D+00  0.000000D+00  0.493799D-05 -0.319503D-04  0.000000D+00
     53  0.117321D-05 -0.729823D-04  0.000000D+00  0.000000D+00 -0.131480D-04
     54  0.000000D+00  0.000000D+00  0.000000D+00  0.000000D+00  0.000000D+00
     55  0.184069D-03  0.675119D-03  0.000000D+00  0.000000D+00 -0.187619D-03
     56  0.580998D-03  0.170533D-02  0.000000D+00  0.000000D+00 -0.141365D-02
     57  0.365631D-01  0.568085D-01  0.000000D+00  0.000000D+00 -0.254551D-01
     58  0.000000D+00  0.000000D+00  0.000000D+00  0.000000D+00  0.000000D+00
     59  0.711242D-04  0.447827D-03  0.000000D+00  0.000000D+00  0.217430D-03
     60  0.000000D+00  0.000000D+00  0.360134D-04  0.118971D-03  0.000000D+00
     61 -0.240481D-04 -0.413375D-03  0.000000D+00  0.000000D+00 -0.817429D-04
     62 -0.216820D-03 -0.122822D-02  0.000000D+00  0.000000D+00 -0.627051D-03
     63  0.964385D-02  0.223306D-01  0.000000D+00  0.000000D+00  0.732267D-02
     64  0.000000D+00  0.000000D+00  0.334448D-02  0.110486D-01  0.000000D+00
     65 -0.669506D-02 -0.244448D-01  0.000000D+00  0.000000D+00  0.303261D-02
     66 -0.348751D-01 -0.679963D-01  0.000000D+00  0.000000D+00 -0.231365D-01
     67  0.420303D-05  0.323536D-04  0.000000D+00  0.000000D+00  0.162483D-04
     68  0.432538D-05  0.997423D-04  0.000000D+00  0.000000D+00  0.175949D-04
     69  0.997423D-04  0.646551D-03  0.000000D+00  0.000000D+00  0.353093D-03
     70  0.000000D+00  0.000000D+00 -0.442900D-05 -0.281429D-04  0.000000D+00
     71  0.000000D+00  0.000000D+00 -0.281429D-04 -0.888809D-04  0.000000D+00
     72  0.175949D-04  0.353093D-03  0.000000D+00  0.000000D+00  0.962469D-04
     73  0.457961D-02  0.835141D-02  0.000000D+00  0.000000D+00  0.872967D-02
     74  0.789582D-01  0.988650D-01  0.000000D+00  0.000000D+00  0.460734D-01
     75  0.000000D+00  0.000000D+00  0.000000D+00  0.000000D+00  0.000000D+00
     76  0.500896D-03  0.120069D-02  0.000000D+00  0.000000D+00  0.648612D-03
               16            17            18            19            20 
     16  0.100000D+01
     17  0.658292D+00  0.100000D+01
     18  0.137542D-01  0.132673D+00  0.100000D+01
     19  0.132673D+00  0.373613D+00  0.658292D+00  0.100000D+01
     20  0.503906D-04  0.149315D-01  0.503906D-04  0.149315D-01  0.100000D+01
     21  0.859474D-02  0.113818D+00  0.859474D-02  0.113818D+00  0.219059D+00
     22  0.000000D+00  0.000000D+00  0.000000D+00  0.000000D+00  0.000000D+00
     23  0.803221D-02  0.511065D-01 -0.803221D-02 -0.511065D-01  0.000000D+00
     24  0.165011D-01  0.104991D+00  0.165011D-01  0.104991D+00  0.000000D+00
     25  0.770162D-01  0.268675D+00  0.770162D-01  0.268675D+00  0.184261D+00
     26  0.000000D+00  0.000000D+00  0.000000D+00  0.000000D+00  0.000000D+00
     27  0.888043D-01  0.188459D+00 -0.888043D-01 -0.188459D+00  0.000000D+00
     28  0.182436D+00  0.387163D+00  0.182436D+00  0.387163D+00  0.000000D+00
     29  0.179224D-02  0.731415D-01  0.179224D-02  0.731415D-01  0.791027D-01
     30  0.493107D-02  0.852230D-01  0.493107D-02  0.852230D-01  0.791027D-01
     31  0.150394D-01  0.124130D+00  0.150394D-01  0.124130D+00  0.791027D-01
     32  0.000000D+00  0.000000D+00  0.000000D+00  0.000000D+00  0.000000D+00
     33  0.000000D+00  0.000000D+00  0.000000D+00  0.000000D+00  0.000000D+00
     34  0.111688D-01  0.429890D-01 -0.111688D-01 -0.429890D-01  0.000000D+00
     35  0.124180D-04  0.772137D-02  0.620963D-03  0.378890D-01  0.331977D-01
     36  0.772137D-02  0.644183D-01  0.378890D-01  0.172420D+00  0.925559D-01
     37  0.620963D-03  0.378890D-01  0.124180D-04  0.772137D-02  0.331977D-01
     38  0.378890D-01  0.172420D+00  0.772137D-02  0.644183D-01  0.925559D-01
     39  0.000000D+00  0.203285D-02  0.122529D-05  0.516576D-02  0.000000D+00
     40  0.197070D-03  0.235398D-01  0.115087D-02  0.492381D-01  0.000000D+00
     41  0.000000D+00  0.000000D+00  0.000000D+00  0.000000D+00  0.000000D+00
     42  0.267283D-03  0.150992D-01 -0.536122D-03 -0.109834D-01  0.000000D+00
     43 -0.480892D-03 -0.271661D-01 -0.282491D-02 -0.578735D-01  0.000000D+00
     44  0.136109D-01  0.934076D-01  0.305919D-01  0.153115D+00  0.241346D-05
     45  0.000000D+00  0.000000D+00  0.000000D+00  0.000000D+00  0.000000D+00
     46  0.233055D-01  0.976847D-01 -0.179168D-01 -0.546759D-01  0.163416D-05
     47 -0.419308D-01 -0.175753D+00 -0.944068D-01 -0.288097D+00 -0.157677D-04
     48  0.187979D-04  0.131000D-01  0.158416D-03  0.292853D-01  0.000000D+00
     49  0.913942D-04  0.179099D-01  0.229822D-03  0.305390D-01  0.000000D+00
     50  0.253796D-03  0.286699D-01  0.214093D-02  0.640921D-01  0.000000D+00
     51  0.000000D+00  0.000000D+00  0.000000D+00  0.000000D+00  0.000000D+00
     52  0.000000D+00  0.000000D+00  0.000000D+00  0.000000D+00  0.000000D+00
     53 -0.226230D-03 -0.149890D-01  0.651682D-03  0.114415D-01  0.000000D+00
     54  0.000000D+00  0.518606D-03  0.000000D+00  0.224760D-02  0.000000D+00
     55  0.518606D-03  0.120378D-01  0.224760D-02  0.299538D-01  0.000000D+00
     56  0.176728D-03  0.227294D-01  0.268479D-01  0.173238D+00  0.000000D+00
     57  0.227294D-01  0.125711D+00  0.173238D+00  0.440327D+00  0.700158D-04
     58  0.155367D-04  0.106813D-01  0.000000D+00  0.184740D-02  0.000000D+00
     59  0.455484D-02  0.873919D-01  0.164447D-03  0.218219D-01  0.000000D+00
     60  0.000000D+00  0.000000D+00  0.000000D+00  0.000000D+00  0.000000D+00
     61  0.322230D-03  0.297448D-02 -0.287671D-03 -0.180280D-01  0.000000D+00
     62 -0.102586D-01 -0.946967D-01 -0.363858D-03 -0.228026D-01  0.000000D+00
     63  0.575375D-01  0.224991D+00  0.125268D-01  0.887899D-01  0.556697D-05
     64  0.000000D+00  0.000000D+00  0.000000D+00  0.000000D+00  0.000000D+00
     65  0.506638D-02  0.120608D-01 -0.276690D-01 -0.119802D+00 -0.709329D-05
     66 -0.161295D+00 -0.383973D+00 -0.349969D-01 -0.151530D+00 -0.344642D-04
     67  0.833354D-03  0.547928D-01  0.151060D-04  0.120623D-01  0.000000D+00
     68  0.841848D-03  0.548457D-01  0.112213D-03  0.194346D-01  0.000000D+00
     69  0.944174D-02  0.108369D+00  0.170460D-03  0.238567D-01  0.000000D+00
     70  0.000000D+00  0.000000D+00  0.000000D+00  0.000000D+00  0.000000D+00
     71  0.000000D+00  0.000000D+00  0.000000D+00  0.000000D+00  0.000000D+00
     72 -0.468336D-03 -0.291480D-02  0.212739D-03  0.161511D-01  0.000000D+00
     73  0.113291D+00  0.304057D+00  0.500974D-03  0.347221D-01  0.000000D+00
     74  0.304057D+00  0.622387D+00  0.347221D-01  0.163365D+00  0.310921D-03
     75  0.911925D-05  0.681099D-02  0.000000D+00  0.456092D-03  0.000000D+00
     76  0.681099D-02  0.595982D-01  0.456092D-03  0.111131D-01  0.000000D+00
               21            22            23            24            25 
     21  0.100000D+01
     22  0.000000D+00  0.100000D+01
     23  0.000000D+00  0.000000D+00  0.100000D+01
     24  0.000000D+00  0.000000D+00  0.000000D+00  0.100000D+01
     25  0.812273D+00  0.000000D+00  0.000000D+00  0.000000D+00  0.100000D+01
     26  0.000000D+00  0.569754D+00  0.000000D+00  0.000000D+00  0.000000D+00
     27  0.000000D+00  0.000000D+00  0.569754D+00  0.000000D+00  0.000000D+00
     28  0.000000D+00  0.000000D+00  0.000000D+00  0.569754D+00  0.000000D+00
     29  0.710235D+00  0.000000D+00  0.000000D+00  0.000000D+00  0.629936D+00
     30  0.710235D+00  0.000000D+00  0.000000D+00  0.000000D+00  0.629936D+00
     31  0.710235D+00  0.000000D+00  0.000000D+00  0.000000D+00  0.629936D+00
     32  0.000000D+00  0.000000D+00  0.000000D+00  0.000000D+00  0.000000D+00
     33  0.000000D+00  0.000000D+00  0.000000D+00  0.000000D+00  0.000000D+00
     34  0.000000D+00  0.000000D+00  0.000000D+00  0.000000D+00  0.000000D+00
     35  0.275683D+00  0.000000D+00 -0.315893D+00 -0.195236D+00  0.378304D+00
     36  0.477571D+00  0.000000D+00 -0.226114D+00 -0.139748D+00  0.705959D+00
     37  0.275683D+00  0.000000D+00  0.315893D+00 -0.195236D+00  0.378304D+00
     38  0.477571D+00  0.000000D+00  0.226114D+00 -0.139748D+00  0.705959D+00
     39  0.000000D+00  0.000000D+00  0.000000D+00  0.000000D+00  0.241346D-05
     40  0.000000D+00  0.000000D+00  0.000000D+00  0.000000D+00  0.118761D-03
     41  0.000000D+00  0.000000D+00  0.000000D+00  0.000000D+00  0.000000D+00
     42  0.000000D+00  0.000000D+00  0.000000D+00  0.000000D+00  0.240360D-04
     43  0.000000D+00  0.000000D+00  0.000000D+00  0.000000D+00 -0.231920D-03
     44  0.118761D-03  0.000000D+00 -0.240360D-04  0.231920D-03  0.291099D-02
     45  0.000000D+00  0.682282D-04  0.000000D+00  0.000000D+00  0.000000D+00
     46  0.636870D-04  0.000000D+00  0.552386D-04  0.125335D-03  0.102551D-02
     47 -0.614506D-03  0.000000D+00  0.125335D-03 -0.114111D-02 -0.989497D-02
     48  0.000000D+00  0.000000D+00  0.000000D+00  0.000000D+00  0.408056D-04
     49  0.000000D+00  0.000000D+00  0.000000D+00  0.000000D+00  0.425696D-04
     50  0.000000D+00  0.000000D+00  0.000000D+00  0.000000D+00  0.205036D-03
     51  0.000000D+00  0.000000D+00  0.000000D+00  0.000000D+00  0.000000D+00
     52  0.000000D+00  0.000000D+00  0.000000D+00  0.000000D+00  0.000000D+00
     53  0.000000D+00  0.000000D+00  0.000000D+00  0.000000D+00 -0.294808D-04
     54  0.000000D+00  0.000000D+00  0.000000D+00  0.000000D+00  0.000000D+00
     55  0.157445D-05  0.000000D+00  0.000000D+00  0.358064D-05  0.155736D-03
     56  0.000000D+00  0.000000D+00  0.000000D+00  0.117732D-05  0.736087D-03
     57  0.162096D-02  0.000000D+00 -0.846726D-03  0.256654D-02  0.156548D-01
     58  0.000000D+00  0.000000D+00  0.000000D+00  0.000000D+00  0.556697D-05
     59  0.000000D+00  0.000000D+00  0.000000D+00  0.000000D+00  0.230171D-03
     60  0.000000D+00  0.000000D+00  0.000000D+00  0.000000D+00  0.000000D+00
     61  0.000000D+00  0.000000D+00  0.000000D+00  0.000000D+00 -0.881240D-04
     62  0.000000D+00  0.000000D+00  0.000000D+00  0.000000D+00 -0.428168D-03
     63  0.230171D-03  0.000000D+00  0.881240D-04  0.428168D-03  0.449646D-02
     64  0.000000D+00  0.132963D-03  0.000000D+00  0.000000D+00  0.000000D+00
     65 -0.232109D-03  0.000000D+00  0.433060D-04 -0.435617D-03 -0.298012D-02
     66 -0.112775D-02  0.000000D+00 -0.435617D-03 -0.198357D-02 -0.144795D-01
     67  0.000000D+00  0.000000D+00  0.000000D+00  0.000000D+00  0.836768D-04
     68  0.000000D+00  0.000000D+00  0.000000D+00  0.000000D+00  0.964799D-04
     69  0.000000D+00  0.000000D+00  0.000000D+00  0.000000D+00  0.385920D-03
     70  0.000000D+00  0.000000D+00  0.000000D+00  0.000000D+00  0.000000D+00
     71  0.000000D+00  0.000000D+00  0.000000D+00  0.000000D+00  0.000000D+00
     72  0.000000D+00  0.000000D+00  0.000000D+00  0.000000D+00  0.107745D-03
     73  0.564896D-05  0.000000D+00  0.696249D-05  0.174001D-04  0.267367D-02
     74  0.530641D-02  0.000000D+00  0.301123D-02  0.752539D-02  0.345197D-01
     75  0.000000D+00  0.000000D+00  0.000000D+00  0.000000D+00  0.148074D-05
     76  0.518270D-05  0.000000D+00  0.346504D-05  0.108973D-04  0.343406D-03
               26            27            28            29            30 
     26  0.100000D+01
     27  0.000000D+00  0.100000D+01
     28  0.000000D+00  0.000000D+00  0.100000D+01
     29  0.000000D+00  0.000000D+00  0.000000D+00  0.100000D+01
     30  0.000000D+00  0.000000D+00  0.000000D+00  0.333333D+00  0.100000D+01
     31  0.000000D+00  0.000000D+00  0.000000D+00  0.333333D+00  0.333333D+00
     32  0.000000D+00  0.000000D+00  0.000000D+00  0.000000D+00  0.000000D+00
     33  0.000000D+00  0.000000D+00  0.000000D+00  0.000000D+00  0.000000D+00
     34  0.000000D+00  0.000000D+00  0.000000D+00  0.000000D+00  0.000000D+00
     35  0.000000D+00 -0.438291D+00 -0.270883D+00  0.118668D+00  0.364579D+00
     36  0.000000D+00 -0.495188D+00 -0.306047D+00  0.352450D+00  0.410668D+00
     37  0.000000D+00  0.438291D+00 -0.270883D+00  0.118668D+00  0.364579D+00
     38  0.000000D+00  0.495188D+00 -0.306047D+00  0.352450D+00  0.410668D+00
     39  0.000000D+00 -0.163416D-05  0.157677D-04  0.000000D+00  0.000000D+00
     40  0.000000D+00 -0.636870D-04  0.614506D-03  0.000000D+00  0.000000D+00
     41  0.682282D-04  0.000000D+00  0.000000D+00  0.000000D+00  0.000000D+00
     42  0.000000D+00  0.552386D-04  0.125335D-03  0.000000D+00  0.000000D+00
     43  0.000000D+00  0.125335D-03 -0.114111D-02  0.000000D+00  0.000000D+00
     44  0.000000D+00 -0.102551D-02  0.989497D-02  0.408056D-04  0.425696D-04
     45  0.291099D-02  0.000000D+00  0.000000D+00  0.000000D+00  0.000000D+00
     46  0.000000D+00  0.254971D-02  0.348589D-02  0.237434D-04  0.147552D-04
     47  0.000000D+00  0.348589D-02 -0.307238D-01 -0.229096D-03 -0.239000D-03
     48  0.000000D+00 -0.237434D-04  0.229096D-03  0.000000D+00  0.000000D+00
     49  0.000000D+00 -0.147552D-04  0.239000D-03  0.000000D+00  0.000000D+00
     50  0.000000D+00 -0.119304D-03  0.105451D-02  0.000000D+00  0.000000D+00
     51  0.867292D-05  0.000000D+00  0.000000D+00  0.000000D+00  0.000000D+00
     52 -0.836836D-04  0.000000D+00  0.000000D+00  0.000000D+00  0.000000D+00
     53  0.000000D+00 -0.665297D-04 -0.156842D-03  0.000000D+00  0.000000D+00
     54  0.000000D+00  0.000000D+00  0.272257D-05  0.000000D+00  0.000000D+00
     55  0.000000D+00 -0.101148D-03  0.636749D-03  0.000000D+00  0.000000D+00
     56  0.000000D+00 -0.107143D-02  0.324764D-02  0.000000D+00  0.000000D+00
     57  0.000000D+00 -0.139811D-01  0.423787D-01  0.715412D-03  0.906979D-03
     58  0.000000D+00  0.709329D-05  0.344642D-04  0.000000D+00  0.000000D+00
     59  0.000000D+00  0.232109D-03  0.112775D-02  0.000000D+00  0.000000D+00
     60  0.132963D-03  0.000000D+00  0.000000D+00  0.000000D+00  0.000000D+00
     61  0.000000D+00  0.433060D-04 -0.435617D-03  0.000000D+00  0.000000D+00
     62  0.000000D+00 -0.435617D-03 -0.198357D-02  0.000000D+00  0.000000D+00
     63  0.000000D+00  0.298012D-02  0.144795D-01  0.836768D-04  0.964799D-04
     64  0.449646D-02  0.000000D+00  0.000000D+00  0.000000D+00  0.000000D+00
     65  0.000000D+00  0.252132D-02 -0.959656D-02 -0.915992D-04 -0.669793D-04
     66  0.000000D+00 -0.959656D-02 -0.421303D-01 -0.445053D-03 -0.513149D-03
     67  0.000000D+00  0.915992D-04  0.445053D-03  0.000000D+00  0.000000D+00
     68  0.000000D+00  0.669793D-04  0.513149D-03  0.000000D+00  0.000000D+00
     69  0.000000D+00  0.422458D-03  0.186488D-02  0.000000D+00  0.000000D+00
     70 -0.334591D-04  0.000000D+00  0.000000D+00  0.000000D+00  0.000000D+00
     71 -0.162568D-03  0.000000D+00  0.000000D+00  0.000000D+00  0.000000D+00
     72  0.000000D+00 -0.446215D-04  0.539606D-03  0.000000D+00  0.000000D+00
     73  0.000000D+00  0.415988D-02  0.103960D-01  0.000000D+00  0.108042D-05
     74  0.000000D+00  0.328960D-01  0.822108D-01  0.259156D-02  0.338168D-02
     75  0.000000D+00  0.287487D-05  0.904125D-05  0.000000D+00  0.000000D+00
     76  0.000000D+00  0.410910D-03  0.129228D-02  0.142676D-05  0.211257D-05
               31            32            33            34            35 
     31  0.100000D+01
     32  0.000000D+00  0.100000D+01
     33  0.000000D+00  0.000000D+00  0.100000D+01
     34  0.000000D+00  0.000000D+00  0.000000D+00  0.100000D+01
     35  0.212600D+00  0.000000D+00  0.000000D+00  0.263244D+00  0.100000D+01
     36  0.374688D+00  0.000000D+00  0.000000D+00  0.623210D-01  0.658292D+00
     37  0.212600D+00  0.000000D+00  0.000000D+00 -0.263244D+00  0.137542D-01
     38  0.374688D+00  0.000000D+00  0.000000D+00 -0.623210D-01  0.132673D+00
     39  0.000000D+00  0.000000D+00  0.000000D+00  0.000000D+00  0.000000D+00
     40  0.000000D+00  0.000000D+00  0.000000D+00  0.000000D+00  0.000000D+00
     41  0.000000D+00  0.000000D+00  0.000000D+00  0.000000D+00  0.000000D+00
     42  0.000000D+00  0.000000D+00  0.000000D+00  0.000000D+00  0.000000D+00
     43  0.000000D+00  0.000000D+00  0.000000D+00  0.000000D+00  0.000000D+00
     44  0.205036D-03  0.000000D+00  0.000000D+00 -0.294808D-04  0.456869D-05
     45  0.000000D+00 -0.867292D-05  0.836836D-04  0.000000D+00  0.000000D+00
     46  0.119304D-03  0.000000D+00  0.000000D+00  0.665297D-04 -0.264836D-05
     47 -0.105451D-02  0.000000D+00  0.000000D+00  0.156842D-03 -0.278571D-04
     48  0.000000D+00  0.000000D+00  0.000000D+00  0.000000D+00  0.000000D+00
     49  0.000000D+00  0.000000D+00  0.000000D+00  0.000000D+00  0.000000D+00
     50  0.000000D+00  0.000000D+00  0.000000D+00  0.000000D+00  0.000000D+00
     51  0.000000D+00  0.000000D+00  0.000000D+00  0.000000D+00  0.000000D+00
     52  0.000000D+00  0.000000D+00  0.000000D+00  0.000000D+00  0.000000D+00
     53  0.000000D+00  0.000000D+00  0.000000D+00  0.000000D+00  0.000000D+00
     54  0.000000D+00  0.000000D+00  0.000000D+00  0.000000D+00  0.000000D+00
     55  0.260430D-05  0.000000D+00  0.000000D+00  0.000000D+00  0.000000D+00
     56  0.000000D+00  0.000000D+00  0.000000D+00  0.000000D+00  0.000000D+00
     57  0.247549D-02  0.000000D+00  0.000000D+00 -0.100574D-02  0.220327D-03
     58  0.000000D+00  0.000000D+00  0.000000D+00  0.000000D+00  0.000000D+00
     59  0.000000D+00  0.000000D+00  0.000000D+00  0.000000D+00  0.000000D+00
     60  0.000000D+00  0.000000D+00  0.000000D+00  0.000000D+00  0.000000D+00
     61  0.000000D+00  0.000000D+00  0.000000D+00  0.000000D+00  0.000000D+00
     62  0.000000D+00  0.000000D+00  0.000000D+00  0.000000D+00  0.000000D+00
     63  0.385920D-03  0.000000D+00  0.000000D+00  0.107745D-03  0.325212D-05
     64  0.000000D+00  0.334591D-04  0.162568D-03  0.000000D+00  0.000000D+00
     65 -0.422458D-03  0.000000D+00  0.000000D+00  0.446215D-04 -0.712208D-05
     66 -0.186488D-02  0.000000D+00  0.000000D+00 -0.539606D-03 -0.189029D-04
     67  0.000000D+00  0.000000D+00  0.000000D+00  0.000000D+00  0.000000D+00
     68  0.000000D+00  0.000000D+00  0.000000D+00  0.000000D+00  0.000000D+00
     69  0.000000D+00  0.000000D+00  0.000000D+00  0.000000D+00  0.000000D+00
     70  0.000000D+00  0.000000D+00  0.000000D+00  0.000000D+00  0.000000D+00
     71  0.000000D+00  0.000000D+00  0.000000D+00  0.000000D+00  0.000000D+00
     72  0.000000D+00  0.000000D+00  0.000000D+00  0.000000D+00  0.000000D+00
     73  0.540036D-05  0.000000D+00  0.000000D+00  0.356478D-05  0.000000D+00
     74  0.752628D-02  0.000000D+00  0.000000D+00  0.342009D-02  0.119507D-03
     75  0.000000D+00  0.000000D+00  0.000000D+00  0.000000D+00  0.000000D+00
     76  0.820980D-05  0.000000D+00  0.000000D+00  0.373572D-05  0.000000D+00
               36            37            38            39            40 
     36  0.100000D+01
     37  0.132673D+00  0.100000D+01
     38  0.373613D+00  0.658292D+00  0.100000D+01
     39  0.000000D+00  0.000000D+00  0.000000D+00  0.100000D+01
     40  0.147454D-04  0.000000D+00  0.700489D-05  0.219059D+00  0.100000D+01
     41  0.000000D+00  0.000000D+00  0.000000D+00  0.000000D+00  0.000000D+00
     42 -0.295663D-05  0.000000D+00  0.409857D-05  0.000000D+00  0.000000D+00
     43 -0.310996D-04  0.000000D+00 -0.147206D-04  0.000000D+00  0.000000D+00
     44  0.687554D-03  0.204846D-05  0.419441D-03  0.184261D+00  0.812273D+00
     45  0.000000D+00  0.000000D+00  0.000000D+00  0.000000D+00  0.000000D+00
     46 -0.245519D-03  0.347638D-05  0.438646D-03  0.000000D+00  0.000000D+00
     47 -0.258252D-02 -0.124859D-04 -0.157546D-02  0.000000D+00  0.000000D+00
     48  0.441692D-05  0.000000D+00  0.197579D-05  0.791027D-01  0.710235D+00
     49  0.460600D-05  0.000000D+00  0.270124D-05  0.791027D-01  0.710235D+00
     50  0.253373D-04  0.000000D+00  0.113340D-04  0.791027D-01  0.710235D+00
     51  0.000000D+00  0.000000D+00  0.000000D+00  0.000000D+00  0.000000D+00
     52  0.000000D+00  0.000000D+00  0.000000D+00  0.000000D+00  0.000000D+00
     53  0.344485D-05  0.000000D+00 -0.451293D-05  0.000000D+00  0.000000D+00
     54  0.000000D+00  0.000000D+00  0.000000D+00  0.331977D-01  0.275683D+00
     55  0.360176D-04  0.000000D+00  0.144747D-04  0.925559D-01  0.477571D+00
     56  0.220327D-03  0.000000D+00  0.294820D-04  0.331977D-01  0.275683D+00
     57  0.706545D-02  0.294820D-04  0.201715D-02  0.925559D-01  0.477571D+00
     58  0.000000D+00  0.000000D+00  0.000000D+00  0.629190D-05  0.211388D-01
     59  0.107572D-04  0.000000D+00  0.436171D-04  0.211388D-01  0.212250D+00
     60  0.000000D+00  0.000000D+00  0.000000D+00  0.000000D+00  0.000000D+00
     61 -0.813699D-05  0.000000D+00  0.132124D-05 -0.450360D-01 -0.287233D+00
     62 -0.215966D-04  0.000000D+00 -0.882659D-04  0.794106D-02  0.506469D-01
     63  0.557649D-03  0.147167D-04  0.141306D-02  0.661470D-01  0.367065D+00
     64  0.000000D+00  0.000000D+00  0.000000D+00  0.000000D+00  0.000000D+00
     65 -0.752421D-03  0.128144D-05  0.757484D-04 -0.129473D+00 -0.558264D+00
     66 -0.199702D-02 -0.856068D-04 -0.506039D-02  0.228295D-01  0.984370D-01
     67  0.314109D-05  0.000000D+00  0.142684D-04  0.126402D-02  0.979583D-01
     68  0.506089D-05  0.000000D+00  0.142821D-04  0.558388D-01  0.337702D+00
     69  0.166650D-04  0.000000D+00  0.757004D-04  0.296082D-02  0.105412D+00
     70  0.000000D+00  0.000000D+00  0.000000D+00  0.000000D+00  0.000000D+00
     71  0.000000D+00  0.000000D+00  0.000000D+00  0.000000D+00  0.000000D+00
     72  0.882550D-05  0.000000D+00 -0.159274D-05 -0.166675D-01 -0.732196D-01
     73  0.119507D-03  0.000000D+00  0.102496D-02  0.503906D-04  0.859474D-02
     74  0.482675D-02  0.102496D-02  0.183889D-01  0.149315D-01  0.113818D+00
     75  0.000000D+00  0.000000D+00  0.000000D+00  0.503906D-04  0.859474D-02
     76  0.246054D-04  0.000000D+00  0.131955D-03  0.149315D-01  0.113818D+00
               41            42            43            44            45 
     41  0.100000D+01
     42  0.000000D+00  0.100000D+01
     43  0.000000D+00  0.000000D+00  0.100000D+01
     44  0.000000D+00  0.000000D+00  0.000000D+00  0.100000D+01
     45  0.569754D+00  0.000000D+00  0.000000D+00  0.000000D+00  0.100000D+01
     46  0.000000D+00  0.569754D+00  0.000000D+00  0.000000D+00  0.000000D+00
     47  0.000000D+00  0.000000D+00  0.569754D+00  0.000000D+00  0.000000D+00
     48  0.000000D+00  0.000000D+00  0.000000D+00  0.629936D+00  0.000000D+00
     49  0.000000D+00  0.000000D+00  0.000000D+00  0.629936D+00  0.000000D+00
     50  0.000000D+00  0.000000D+00  0.000000D+00  0.629936D+00  0.000000D+00
     51  0.000000D+00  0.000000D+00  0.000000D+00  0.000000D+00  0.000000D+00
     52  0.000000D+00  0.000000D+00  0.000000D+00  0.000000D+00  0.000000D+00
     53  0.000000D+00  0.000000D+00  0.000000D+00  0.000000D+00  0.000000D+00
     54  0.000000D+00 -0.137415D+00  0.344996D+00  0.378304D+00  0.000000D+00
     55  0.000000D+00 -0.983610D-01  0.246946D+00  0.705959D+00  0.000000D+00
     56  0.000000D+00 -0.247124D+00 -0.277191D+00  0.378304D+00  0.000000D+00
     57  0.000000D+00 -0.176890D+00 -0.198412D+00  0.705959D+00  0.000000D+00
     58  0.000000D+00  0.450360D-01 -0.794106D-02  0.661470D-01  0.000000D+00
     59  0.000000D+00  0.287233D+00 -0.506469D-01  0.367065D+00  0.000000D+00
     60  0.121812D+00  0.000000D+00  0.000000D+00  0.000000D+00  0.248172D+00
     61  0.000000D+00 -0.325777D+00  0.789220D-01 -0.251909D+00  0.000000D+00
     62  0.000000D+00  0.789220D-01  0.107895D+00  0.444184D-01  0.000000D+00
     63  0.000000D+00  0.251909D+00 -0.444184D-01  0.587905D+00  0.000000D+00
     64  0.248172D+00  0.000000D+00  0.000000D+00  0.000000D+00  0.587905D+00
     65  0.000000D+00 -0.151195D+00  0.704191D-01 -0.596758D+00  0.000000D+00
     66  0.000000D+00  0.704191D-01  0.235755D+00  0.105225D+00  0.000000D+00
     67  0.000000D+00  0.146120D+00 -0.257649D-01  0.261980D+00  0.000000D+00
     68  0.000000D+00  0.400213D+00 -0.109082D+00  0.356003D+00  0.000000D+00
     69  0.000000D+00  0.160811D+00  0.101580D-01  0.264903D+00  0.000000D+00
     70 -0.189157D+00  0.000000D+00  0.000000D+00  0.000000D+00 -0.160438D+00
     71  0.333535D-01  0.000000D+00  0.000000D+00  0.000000D+00  0.282895D-01
     72  0.000000D+00 -0.110955D+00 -0.163712D+00 -0.287155D-01  0.000000D+00
     73  0.000000D+00  0.148556D-01 -0.107756D-01  0.770162D-01  0.000000D+00
     74  0.000000D+00  0.945215D-01 -0.685616D-01  0.268675D+00  0.000000D+00
     75  0.000000D+00  0.176451D-01  0.504481D-02  0.770162D-01  0.000000D+00
     76  0.000000D+00  0.112271D+00  0.320985D-01  0.268675D+00  0.000000D+00
               46            47            48            49            50 
     46  0.100000D+01
     47  0.000000D+00  0.100000D+01
     48  0.000000D+00  0.000000D+00  0.100000D+01
     49  0.000000D+00  0.000000D+00  0.333333D+00  0.100000D+01
     50  0.000000D+00  0.000000D+00  0.333333D+00  0.333333D+00  0.100000D+01
     51  0.000000D+00  0.000000D+00  0.000000D+00  0.000000D+00  0.000000D+00
     52  0.000000D+00  0.000000D+00  0.000000D+00  0.000000D+00  0.000000D+00
     53  0.000000D+00  0.000000D+00  0.000000D+00  0.000000D+00  0.000000D+00
     54 -0.190659D+00  0.478670D+00  0.118668D+00  0.165202D+00  0.411978D+00
     55 -0.215409D+00  0.540809D+00  0.352450D+00  0.363467D+00  0.421889D+00
     56 -0.342876D+00 -0.384594D+00  0.118668D+00  0.269165D+00  0.308015D+00
     57 -0.387386D+00 -0.434520D+00  0.352450D+00  0.388079D+00  0.397277D+00
     58  0.129473D+00 -0.228295D-01  0.126402D-02  0.558388D-01  0.296082D-02
     59  0.558264D+00 -0.984370D-01  0.979583D-01  0.337702D+00  0.105412D+00
     60  0.000000D+00  0.000000D+00  0.000000D+00  0.000000D+00  0.000000D+00
     61 -0.151195D+00  0.704191D-01 -0.146120D+00 -0.400213D+00 -0.160811D+00
     62  0.704191D-01  0.235755D+00  0.257649D-01  0.109082D+00 -0.101580D-01
     63  0.596758D+00 -0.105225D+00  0.261980D+00  0.356003D+00  0.264903D+00
     64  0.000000D+00  0.000000D+00  0.000000D+00  0.000000D+00  0.000000D+00
     65 -0.178397D-01  0.106809D+00 -0.439221D+00 -0.411598D+00 -0.444122D+00
     66  0.106809D+00  0.569072D+00  0.774465D-01  0.105242D+00  0.456448D-01
     67  0.439221D+00 -0.774465D-01  0.805593D-01  0.158047D+00  0.309321D-01
     68  0.411598D+00 -0.105242D+00  0.158047D+00  0.459136D+00  0.182055D+00
     69  0.444122D+00 -0.456448D-01  0.309321D-01  0.182055D+00  0.730209D-01
     70  0.000000D+00  0.000000D+00  0.000000D+00  0.000000D+00  0.000000D+00
     71  0.000000D+00  0.000000D+00  0.000000D+00  0.000000D+00  0.000000D+00
     72 -0.198533D-01 -0.151949D+00 -0.400676D-01 -0.155688D+00  0.339814D-01
     73  0.164244D+00 -0.119135D+00  0.179224D-02  0.125291D-01  0.744133D-02
     74  0.348556D+00 -0.252826D+00  0.731415D-01  0.114468D+00  0.948850D-01
     75  0.195085D+00  0.557755D-01  0.179224D-02  0.169400D-01  0.303043D-02
     76  0.414007D+00  0.118366D+00  0.731415D-01  0.131446D+00  0.779073D-01
               51            52            53            54            55 
     51  0.100000D+01
     52  0.000000D+00  0.100000D+01
     53  0.000000D+00  0.000000D+00  0.100000D+01
     54  0.000000D+00  0.000000D+00 -0.202353D+00  0.100000D+01
     55  0.000000D+00  0.000000D+00 -0.479054D-01  0.658292D+00  0.100000D+01
     56  0.000000D+00  0.000000D+00  0.292385D+00  0.137542D-01  0.132673D+00
     57  0.000000D+00  0.000000D+00  0.692197D-01  0.132673D+00  0.373613D+00
     58  0.000000D+00  0.000000D+00 -0.166675D-01  0.503906D-04  0.149315D-01
     59  0.000000D+00  0.000000D+00 -0.732196D-01  0.859474D-02  0.113818D+00
     60  0.189157D+00 -0.333535D-01  0.000000D+00  0.000000D+00  0.000000D+00
     61  0.000000D+00  0.000000D+00  0.110955D+00 -0.148556D-01 -0.945215D-01
     62  0.000000D+00  0.000000D+00  0.163712D+00  0.107756D-01  0.685616D-01
     63  0.000000D+00  0.000000D+00 -0.287155D-01  0.770162D-01  0.268675D+00
     64  0.160438D+00 -0.282895D-01  0.000000D+00  0.000000D+00  0.000000D+00
     65  0.000000D+00  0.000000D+00  0.198533D-01 -0.164244D+00 -0.348556D+00
     66  0.000000D+00  0.000000D+00  0.151949D+00  0.119135D+00  0.252826D+00
     67  0.000000D+00  0.000000D+00 -0.400676D-01  0.179224D-02  0.731415D-01
     68  0.000000D+00  0.000000D+00 -0.155688D+00  0.125291D-01  0.114468D+00
     69  0.000000D+00  0.000000D+00  0.339814D-01  0.744133D-02  0.948850D-01
     70 -0.313023D+00  0.693992D-01  0.000000D+00  0.000000D+00  0.000000D+00
     71  0.693992D-01  0.683223D-01  0.000000D+00  0.000000D+00  0.000000D+00
     72  0.000000D+00  0.000000D+00 -0.265475D+00 -0.134893D-01 -0.519207D-01
     73  0.000000D+00  0.000000D+00 -0.134893D-01  0.124180D-04  0.772137D-02
     74  0.000000D+00  0.000000D+00 -0.519207D-01  0.772137D-02  0.644183D-01
     75  0.000000D+00  0.000000D+00  0.750117D-02  0.620963D-03  0.378890D-01
     76  0.000000D+00  0.000000D+00  0.288722D-01  0.378890D-01  0.172420D+00
               56            57            58            59            60 
     56  0.100000D+01
     57  0.658292D+00  0.100000D+01
     58  0.503906D-04  0.149315D-01  0.100000D+01
     59  0.859474D-02  0.113818D+00  0.219059D+00  0.100000D+01
     60  0.000000D+00  0.000000D+00  0.000000D+00  0.000000D+00  0.100000D+01
     61 -0.176451D-01 -0.112271D+00  0.000000D+00  0.000000D+00  0.000000D+00
     62 -0.504481D-02 -0.320985D-01  0.000000D+00  0.000000D+00  0.000000D+00
     63  0.770162D-01  0.268675D+00  0.184261D+00  0.812273D+00  0.000000D+00
     64  0.000000D+00  0.000000D+00  0.000000D+00  0.000000D+00  0.569754D+00
     65 -0.195085D+00 -0.414007D+00  0.000000D+00  0.000000D+00  0.000000D+00
     66 -0.557755D-01 -0.118366D+00  0.000000D+00  0.000000D+00  0.000000D+00
     67  0.179224D-02  0.731415D-01  0.791027D-01  0.710235D+00  0.000000D+00
     68  0.169400D-01  0.131446D+00  0.791027D-01  0.710235D+00  0.000000D+00
     69  0.303043D-02  0.779073D-01  0.791027D-01  0.710235D+00  0.000000D+00
     70  0.000000D+00  0.000000D+00  0.000000D+00  0.000000D+00  0.000000D+00
     71  0.000000D+00  0.000000D+00  0.000000D+00  0.000000D+00  0.000000D+00
     72  0.750117D-02  0.288722D-01  0.000000D+00  0.000000D+00  0.000000D+00
     73  0.620963D-03  0.378890D-01  0.331977D-01  0.275683D+00  0.000000D+00
     74  0.378890D-01  0.172420D+00  0.925559D-01  0.477571D+00  0.000000D+00
     75  0.124180D-04  0.772137D-02  0.331977D-01  0.275683D+00  0.000000D+00
     76  0.772137D-02  0.644183D-01  0.925559D-01  0.477571D+00  0.000000D+00
               61            62            63            64            65 
     61  0.100000D+01
     62  0.000000D+00  0.100000D+01
     63  0.000000D+00  0.000000D+00  0.100000D+01
     64  0.000000D+00  0.000000D+00  0.000000D+00  0.100000D+01
     65  0.569754D+00  0.000000D+00  0.000000D+00  0.000000D+00  0.100000D+01
     66  0.000000D+00  0.569754D+00  0.000000D+00  0.000000D+00  0.000000D+00
     67  0.000000D+00  0.000000D+00  0.629936D+00  0.000000D+00  0.000000D+00
     68  0.000000D+00  0.000000D+00  0.629936D+00  0.000000D+00  0.000000D+00
     69  0.000000D+00  0.000000D+00  0.629936D+00  0.000000D+00  0.000000D+00
     70  0.000000D+00  0.000000D+00  0.000000D+00  0.000000D+00  0.000000D+00
     71  0.000000D+00  0.000000D+00  0.000000D+00  0.000000D+00  0.000000D+00
     72  0.000000D+00  0.000000D+00  0.000000D+00  0.000000D+00  0.000000D+00
     73  0.137415D+00 -0.344996D+00  0.378304D+00  0.000000D+00  0.190659D+00
     74  0.983610D-01 -0.246946D+00  0.705959D+00  0.000000D+00  0.215409D+00
     75  0.247124D+00  0.277191D+00  0.378304D+00  0.000000D+00  0.342876D+00
     76  0.176890D+00  0.198412D+00  0.705959D+00  0.000000D+00  0.387386D+00
               66            67            68            69            70 
     66  0.100000D+01
     67  0.000000D+00  0.100000D+01
     68  0.000000D+00  0.333333D+00  0.100000D+01
     69  0.000000D+00  0.333333D+00  0.333333D+00  0.100000D+01
     70  0.000000D+00  0.000000D+00  0.000000D+00  0.000000D+00  0.100000D+01
     71  0.000000D+00  0.000000D+00  0.000000D+00  0.000000D+00  0.000000D+00
     72  0.000000D+00  0.000000D+00  0.000000D+00  0.000000D+00  0.000000D+00
     73 -0.478670D+00  0.118668D+00  0.165202D+00  0.411978D+00  0.000000D+00
     74 -0.540809D+00  0.352450D+00  0.363467D+00  0.421889D+00  0.000000D+00
     75  0.384594D+00  0.118668D+00  0.269165D+00  0.308015D+00  0.000000D+00
     76  0.434520D+00  0.352450D+00  0.388079D+00  0.397277D+00  0.000000D+00
               71            72            73            74            75 
     71  0.100000D+01
     72  0.000000D+00  0.100000D+01
     73  0.000000D+00 -0.202353D+00  0.100000D+01
     74  0.000000D+00 -0.479054D-01  0.658292D+00  0.100000D+01
     75  0.000000D+00  0.292385D+00  0.137542D-01  0.132673D+00  0.100000D+01
     76  0.000000D+00  0.692197D-01  0.132673D+00  0.373613D+00  0.658292D+00
               76 
     76  0.100000D+01
 *** Kinetic Energy *** 
                1             2             3             4             5 
      1  0.162076D+02
      2 -0.124757D+01  0.932246D+00
      3  0.000000D+00  0.000000D+00  0.217833D+01
      4  0.000000D+00  0.000000D+00  0.000000D+00  0.217833D+01
      5  0.000000D+00  0.000000D+00  0.000000D+00  0.000000D+00  0.217833D+01
      6  0.899505D-01  0.306718D+00  0.000000D+00  0.000000D+00  0.000000D+00
      7  0.000000D+00  0.000000D+00  0.376673D+00  0.000000D+00  0.000000D+00
      8  0.000000D+00  0.000000D+00  0.000000D+00  0.376673D+00  0.000000D+00
      9  0.000000D+00  0.000000D+00  0.000000D+00  0.000000D+00  0.376673D+00
     10 -0.524817D+00  0.520042D+00  0.000000D+00  0.000000D+00  0.000000D+00
     11 -0.524817D+00  0.520042D+00  0.000000D+00  0.000000D+00  0.000000D+00
     12 -0.524817D+00  0.520042D+00  0.000000D+00  0.000000D+00  0.000000D+00
     13  0.000000D+00  0.000000D+00  0.000000D+00  0.000000D+00  0.000000D+00
     14  0.000000D+00  0.000000D+00  0.000000D+00  0.000000D+00  0.000000D+00
     15  0.000000D+00  0.000000D+00  0.000000D+00  0.000000D+00  0.000000D+00
     16 -0.348764D-01  0.436630D-01  0.000000D+00  0.204802D+00  0.126576D+00
     17  0.242995D-01  0.115122D+00  0.000000D+00  0.112871D+00  0.697590D-01
     18 -0.348764D-01  0.436630D-01  0.000000D+00 -0.204802D+00  0.126576D+00
     19  0.242995D-01  0.115122D+00  0.000000D+00 -0.112871D+00  0.697590D-01
     20 -0.172045D-03 -0.314506D-01  0.000000D+00  0.000000D+00  0.290878D-01
     21 -0.314506D-01 -0.217049D-02  0.000000D+00  0.000000D+00 -0.125651D+00
     22  0.000000D+00  0.000000D+00  0.376642D-01  0.000000D+00  0.000000D+00
     23  0.000000D+00  0.000000D+00  0.000000D+00  0.376642D-01  0.000000D+00
     24 -0.290878D-01  0.125651D+00  0.000000D+00  0.000000D+00 -0.360628D+00
     25  0.102297D-01  0.656796D-01  0.000000D+00  0.000000D+00 -0.112363D+00
     26  0.000000D+00  0.000000D+00  0.109014D+00  0.000000D+00  0.000000D+00
     27  0.000000D+00  0.000000D+00  0.000000D+00  0.109014D+00  0.000000D+00
     28  0.631098D-01  0.244268D+00  0.000000D+00  0.000000D+00 -0.181124D+00
     29 -0.132578D-01 -0.705199D-01  0.000000D+00  0.000000D+00  0.427988D-01
     30 -0.132578D-01 -0.705199D-01  0.000000D+00  0.000000D+00  0.427988D-01
     31 -0.746191D-01  0.199547D+00  0.000000D+00  0.000000D+00 -0.509396D+00
     32  0.000000D+00  0.000000D+00  0.000000D+00  0.000000D+00  0.000000D+00
     33  0.000000D+00  0.000000D+00  0.156927D+00  0.000000D+00  0.000000D+00
     34  0.000000D+00  0.000000D+00  0.000000D+00  0.156927D+00  0.000000D+00
     35 -0.400235D-03 -0.162923D-01  0.000000D+00  0.113182D-01  0.232517D-01
     36 -0.456154D-02 -0.125514D-01  0.000000D+00 -0.616331D-02 -0.126617D-01
     37 -0.400235D-03 -0.162923D-01  0.000000D+00 -0.113182D-01  0.232517D-01
     38 -0.456154D-02 -0.125514D-01  0.000000D+00  0.616331D-02 -0.126617D-01
     39  0.000000D+00  0.000000D+00  0.000000D+00  0.000000D+00 -0.240529D-05
     40  0.000000D+00 -0.529098D-03  0.000000D+00  0.190767D-03 -0.128254D-02
     41  0.000000D+00  0.000000D+00 -0.197697D-03  0.000000D+00  0.000000D+00
     42  0.000000D+00 -0.190767D-03  0.000000D+00 -0.129873D-03 -0.455982D-03
     43  0.240529D-05  0.128254D-02  0.000000D+00 -0.455982D-03  0.286790D-02
     44 -0.959530D-03 -0.785674D-02  0.000000D+00  0.117580D-02 -0.790495D-02
     45  0.000000D+00  0.000000D+00 -0.333759D-02  0.000000D+00  0.000000D+00
     46 -0.489478D-03 -0.269231D-02  0.000000D+00 -0.302341D-02 -0.211226D-02
     47  0.329079D-02  0.181005D-01  0.000000D+00 -0.211226D-02  0.108632D-01
     48  0.000000D+00 -0.836088D-04  0.000000D+00  0.369738D-04 -0.248578D-03
     49  0.000000D+00 -0.103575D-03  0.000000D+00  0.434538D-05 -0.305717D-03
     50  0.000000D+00 -0.986086D-03  0.000000D+00  0.421126D-03 -0.255475D-02
     51  0.000000D+00  0.000000D+00 -0.356174D-04  0.000000D+00  0.000000D+00
     52  0.000000D+00  0.000000D+00  0.239458D-03  0.000000D+00  0.000000D+00
     53  0.000000D+00  0.232503D-03  0.000000D+00  0.140490D-03  0.629754D-03
     54  0.000000D+00  0.000000D+00  0.000000D+00  0.000000D+00  0.000000D+00
     55 -0.312342D-04 -0.621382D-03  0.000000D+00  0.199838D-03 -0.948037D-03
     56 -0.136637D-04 -0.343553D-02  0.000000D+00  0.329920D-02 -0.627852D-02
     57 -0.325335D-02 -0.156011D-01  0.000000D+00  0.270792D-02 -0.515329D-02
     58  0.000000D+00 -0.197528D-05  0.000000D+00 -0.245949D-05 -0.812501D-05
     59 -0.197528D-05 -0.106058D-02  0.000000D+00 -0.709107D-03 -0.234255D-02
     60  0.000000D+00  0.000000D+00 -0.392297D-03  0.000000D+00  0.000000D+00
     61  0.245949D-05  0.709107D-03  0.000000D+00  0.745361D-04  0.154220D-02
     62  0.812501D-05  0.234255D-02  0.000000D+00  0.154220D-02  0.470240D-02
     63 -0.136804D-02 -0.992190D-02  0.000000D+00 -0.261501D-02 -0.863875D-02
     64  0.000000D+00  0.000000D+00 -0.394557D-02  0.000000D+00  0.000000D+00
     65  0.125412D-02  0.583869D-02  0.000000D+00 -0.296780D-02  0.323009D-02
     66  0.414301D-02  0.192883D-01  0.000000D+00  0.323009D-02  0.672513D-02
     67  0.000000D+00 -0.197968D-03  0.000000D+00 -0.162882D-03 -0.538084D-03
     68  0.000000D+00 -0.359011D-03  0.000000D+00 -0.112640D-03 -0.955304D-03
     69  0.000000D+00 -0.195548D-02  0.000000D+00 -0.154118D-02 -0.450814D-02
     70  0.000000D+00  0.000000D+00  0.152885D-03  0.000000D+00  0.000000D+00
     71  0.000000D+00  0.000000D+00  0.505060D-03  0.000000D+00  0.000000D+00
     72  0.000000D+00 -0.921469D-03  0.000000D+00 -0.217587D-03 -0.223440D-02
[...]
     56  0.222195D-03 -0.352135D-03 -0.842943D-03 -0.534161D-01  0.862026D-01
     57 -0.634152D-04  0.207703D-02  0.162903D-02  0.489356D-01  0.259298D-01
     58  0.115561D-02 -0.612264D-03  0.331970D-02  0.142088D-01 -0.552684D-01
     59 -0.265633D-02  0.740045D-03  0.106673D-02 -0.553212D-01  0.790082D-01
     60  0.000000D+00  0.000000D+00  0.000000D+00  0.000000D+00  0.000000D+00
     61 -0.104841D-02  0.796804D-03  0.433226D-03  0.705525D-01 -0.117632D+00
     62  0.533668D-02 -0.150737D-02 -0.213290D-02 -0.123974D-01  0.190887D-01
     63 -0.545037D-02  0.904163D-03  0.117751D-03  0.673716D-01  0.520163D-01
     64  0.000000D+00  0.000000D+00  0.000000D+00  0.000000D+00  0.000000D+00
     65 -0.473631D-02  0.193832D-02  0.109646D-02 -0.226601D-01 -0.285321D-01
     66  0.428864D-02 -0.211118D-02 -0.230534D-02  0.414495D-02  0.496355D-02
     67 -0.413814D-04  0.146321D-04 -0.356768D-04  0.290169D-03 -0.418065D-02
     68 -0.482411D-04 -0.274568D-04 -0.849122D-04 -0.115689D-01  0.613276D-02
     69 -0.258385D-03  0.145722D-03  0.132626D-03 -0.215519D-02 -0.389577D-02
     70  0.000000D+00  0.000000D+00  0.000000D+00  0.000000D+00  0.000000D+00
     71  0.000000D+00  0.000000D+00  0.000000D+00  0.000000D+00  0.000000D+00
     72  0.332485D-03 -0.138996D-03 -0.222624D-03  0.204275D-02 -0.213043D-02
     73 -0.238230D-03 -0.513094D-03  0.484876D-05  0.110867D-02 -0.726898D-02
     74  0.290500D-02 -0.153750D-02  0.295970D-03  0.620627D-02 -0.184694D-01
     75  0.152613D-02 -0.340284D-03 -0.839004D-03  0.133622D-02 -0.843963D-02
     76  0.375826D-02 -0.885808D-03 -0.109248D-02  0.644561D-02 -0.167607D-01
               41            42            43            44            45 
     41  0.111698D+00
     42  0.000000D+00  0.227019D+00
     43  0.000000D+00 -0.464742D-02  0.204735D+00
     44  0.000000D+00 -0.140852D-01 -0.100703D-02  0.181398D+00
     45  0.801642D-01  0.000000D+00  0.000000D+00  0.000000D+00  0.575359D-01
     46  0.000000D+00  0.774272D-01 -0.405915D-04 -0.210666D-01  0.000000D+00
     47  0.000000D+00  0.183426D-02  0.880407D-01  0.855186D-03  0.000000D+00
     48  0.000000D+00 -0.556011D-03  0.136436D-03 -0.621013D-02  0.000000D+00
     49  0.000000D+00  0.393225D-02 -0.385207D-02  0.490352D-02  0.000000D+00
     50  0.000000D+00 -0.959034D-02  0.472958D-02  0.823354D-02  0.000000D+00
     51  0.473675D-02  0.000000D+00  0.000000D+00  0.000000D+00  0.339939D-02
     52 -0.939555D-03  0.000000D+00  0.000000D+00  0.000000D+00 -0.675472D-03
     53  0.000000D+00 -0.483356D-02 -0.884209D-02  0.830152D-03  0.000000D+00
     54  0.000000D+00 -0.506199D-01  0.120202D+00  0.790190D-01  0.000000D+00
     55  0.000000D+00 -0.385514D-01  0.931433D-01  0.255774D-01  0.000000D+00
     56  0.000000D+00 -0.889785D-01 -0.960629D-01  0.827848D-01  0.000000D+00
     57  0.000000D+00 -0.720074D-01 -0.738962D-01  0.249920D-01  0.000000D+00
     58  0.000000D+00 -0.707342D-01  0.127250D-01  0.658600D-01  0.000000D+00
     59  0.000000D+00  0.117266D+00 -0.219730D-01  0.514589D-01  0.000000D+00
     60  0.111154D+00  0.000000D+00  0.000000D+00  0.000000D+00  0.797766D-01
     61  0.000000D+00 -0.144162D+00  0.323320D-01 -0.942806D-01  0.000000D+00
     62  0.000000D+00  0.318079D-01  0.334150D-01  0.165831D-01  0.000000D+00
     63  0.000000D+00  0.953907D-01 -0.178203D-01  0.206496D-01  0.000000D+00
     64  0.801403D-01  0.000000D+00  0.000000D+00  0.000000D+00  0.575261D-01
     65  0.000000D+00 -0.433870D-01  0.428582D-02 -0.202296D-01  0.000000D+00
     66  0.000000D+00  0.467773D-02  0.529225D-02  0.456259D-02  0.000000D+00
     67  0.000000D+00 -0.466521D-02  0.770721D-03 -0.340746D-02  0.000000D+00
     68  0.000000D+00  0.248553D-02 -0.221612D-02  0.475690D-02  0.000000D+00
     69  0.000000D+00 -0.295716D-02  0.221191D-02 -0.430457D-02  0.000000D+00
     70 -0.481896D-02  0.000000D+00  0.000000D+00  0.000000D+00 -0.345874D-02
     71  0.702138D-03  0.000000D+00  0.000000D+00  0.000000D+00  0.502300D-03
     72  0.000000D+00 -0.212328D-02 -0.533450D-02 -0.177387D-02  0.000000D+00
     73  0.000000D+00 -0.528067D-02 -0.409760D-02 -0.147490D-01  0.000000D+00
     74  0.000000D+00 -0.327342D-01  0.171692D-01 -0.175819D-01  0.000000D+00
     75  0.000000D+00 -0.327850D-02  0.539539D-02 -0.121769D-01  0.000000D+00
     76  0.000000D+00 -0.243176D-01 -0.148802D-02 -0.146320D-01  0.000000D+00
               46            47            48            49            50 
     46  0.290639D-01
     47  0.733155D-03  0.388951D-01
     48  0.759129D-03 -0.115952D-03  0.197556D-02
     49  0.969140D-03 -0.170858D-02  0.121784D-02  0.155683D-02
     50 -0.363676D-02  0.202059D-02  0.122192D-02  0.114155D-02  0.210035D-02
     51  0.000000D+00  0.000000D+00  0.000000D+00  0.000000D+00  0.000000D+00
     52  0.000000D+00  0.000000D+00  0.000000D+00  0.000000D+00  0.000000D+00
     53 -0.164692D-02 -0.438858D-02  0.229345D-05  0.179244D-03 -0.554477D-04
     54 -0.238674D-01  0.528255D-01 -0.360366D-02 -0.184105D-02  0.739275D-02
     55 -0.148231D-01  0.411925D-01 -0.154883D-02 -0.254290D-02  0.431744D-02
     56 -0.377108D-01 -0.430779D-01 -0.369054D-02  0.186068D-02  0.385410D-02
     57 -0.264624D-01 -0.344668D-01 -0.158221D-02  0.415238D-03  0.123229D-02
     58  0.188930D-01 -0.804619D-02  0.364417D-03 -0.122863D-01 -0.203114D-02
     59  0.291495D-01 -0.427101D-02 -0.414053D-02  0.610287D-02 -0.396691D-02
     60  0.000000D+00  0.000000D+00  0.000000D+00  0.000000D+00  0.000000D+00
     61 -0.436473D-01  0.101902D-01  0.462307D-02 -0.241840D-02  0.294654D-02
     62  0.126533D-01  0.192408D-02 -0.924636D-03  0.218385D-02 -0.236448D-02
     63  0.222410D-01 -0.252442D-02 -0.345091D-02  0.464472D-02 -0.436258D-02
     64  0.000000D+00  0.000000D+00  0.000000D+00  0.000000D+00  0.000000D+00
     65 -0.141975D-01  0.578367D-03  0.127445D-02  0.198730D-03  0.116186D-02
     66  0.241296D-02 -0.339509D-02 -0.297465D-03  0.867810D-03 -0.101707D-02
     67 -0.130016D-02  0.179548D-03  0.244210D-03 -0.185508D-03  0.180777D-03
     68  0.622025D-04 -0.981939D-03 -0.197209D-03  0.358859D-03  0.766759D-04
     69 -0.136871D-02  0.132083D-02  0.183390D-03  0.873080D-04  0.156496D-03
     70  0.000000D+00  0.000000D+00  0.000000D+00  0.000000D+00  0.000000D+00
     71  0.000000D+00  0.000000D+00  0.000000D+00  0.000000D+00  0.000000D+00
     72 -0.545524D-03 -0.300665D-02  0.680770D-04  0.184636D-03 -0.224652D-03
     73 -0.692209D-02  0.738271D-02  0.544073D-04  0.392718D-03  0.103481D-02
     74 -0.126339D-01  0.134260D-01  0.713982D-03 -0.129992D-02  0.225254D-02
     75 -0.291599D-02 -0.321793D-02 -0.105663D-03  0.279650D-02 -0.153871D-02
     76 -0.778003D-02 -0.610392D-02  0.470714D-03  0.126326D-02 -0.604975D-03
               51            52            53            54            55 
     51  0.200876D-03
     52 -0.397945D-04  0.836194D-05
     53  0.000000D+00  0.000000D+00  0.779609D-03
     54  0.000000D+00  0.000000D+00 -0.458507D-02  0.115898D+00
     55  0.000000D+00  0.000000D+00 -0.401257D-02  0.753231D-01  0.547684D-01
     56  0.000000D+00  0.000000D+00  0.692750D-02 -0.439565D-02 -0.192986D-01
     57  0.000000D+00  0.000000D+00  0.584565D-02 -0.201960D-01 -0.208021D-01
     58  0.000000D+00  0.000000D+00  0.190105D-02  0.173493D-02  0.721632D-02
     59  0.000000D+00  0.000000D+00 -0.216863D-02 -0.825389D-02 -0.166461D-01
     60  0.471361D-02 -0.935893D-03  0.000000D+00  0.000000D+00  0.000000D+00
     61  0.000000D+00  0.000000D+00  0.240005D-02  0.488554D-02  0.222273D-01
     62  0.000000D+00  0.000000D+00  0.526443D-02  0.392542D-02 -0.946723D-02
     63  0.000000D+00  0.000000D+00 -0.204534D-02 -0.128384D-01 -0.148706D-01
     64  0.339806D-02 -0.678185D-03  0.000000D+00  0.000000D+00  0.000000D+00
     65  0.000000D+00  0.000000D+00  0.115160D-02  0.116623D-02  0.479674D-02
     66  0.000000D+00  0.000000D+00  0.296117D-02 -0.318558D-02 -0.751830D-02
     67  0.000000D+00  0.000000D+00  0.822309D-04 -0.734169D-04  0.511623D-03
     68  0.000000D+00  0.000000D+00  0.165963D-03  0.363646D-03 -0.950307D-03
     69  0.000000D+00  0.000000D+00 -0.196063D-03  0.873280D-03  0.155180D-02
     70 -0.204347D-03  0.406246D-04  0.000000D+00  0.000000D+00  0.000000D+00
     71  0.298437D-04 -0.526865D-05  0.000000D+00  0.000000D+00  0.000000D+00
     72  0.000000D+00  0.000000D+00  0.666640D-03 -0.430167D-02 -0.345018D-02
     73  0.000000D+00  0.000000D+00 -0.426173D-02  0.553227D-02  0.118751D-01
     74  0.000000D+00  0.000000D+00 -0.357435D-02  0.179613D-01  0.216146D-01
     75  0.000000D+00  0.000000D+00  0.352753D-02 -0.737764D-02 -0.824567D-02
     76  0.000000D+00  0.000000D+00  0.368866D-02 -0.838810D-02 -0.742151D-02
               56            57            58            59            60 
     56  0.117766D+00
     57  0.769484D-01  0.583546D-01
     58  0.113720D-02  0.264985D-02  0.203680D+02
     59 -0.730424D-02 -0.173554D-01  0.828260D+00  0.279698D+00
     60  0.000000D+00  0.000000D+00  0.000000D+00  0.000000D+00  0.110616D+00
     61  0.356507D-02  0.309477D-01  0.231770D-02 -0.100776D-01  0.000000D+00
     62 -0.579144D-02  0.506309D-02 -0.556959D-03  0.395232D-03  0.000000D+00
     63 -0.130006D-01 -0.159207D-01 -0.398397D+00  0.188132D+00  0.000000D+00
     64  0.000000D+00  0.000000D+00  0.000000D+00  0.000000D+00  0.797586D-01
     65  0.771238D-02  0.133846D-01  0.116219D-02  0.168092D-01  0.000000D+00
     66  0.427932D-02  0.837991D-02  0.154218D-01 -0.471231D-02  0.000000D+00
     67 -0.190822D-04  0.628456D-03 -0.170682D+00 -0.183122D-01  0.000000D+00
     68  0.276706D-02  0.115831D-02 -0.162115D+00 -0.365740D-02  0.000000D+00
     69 -0.139036D-02 -0.297662D-03 -0.171860D+00 -0.228762D-02  0.000000D+00
     70  0.000000D+00  0.000000D+00  0.000000D+00  0.000000D+00 -0.479570D-02
     71  0.000000D+00  0.000000D+00  0.000000D+00  0.000000D+00  0.697461D-03
     72  0.349876D-02  0.394765D-02 -0.162835D-02  0.491582D-03  0.000000D+00
     73 -0.722885D-02 -0.913038D-02 -0.545374D-01  0.874123D-01  0.000000D+00
     74 -0.840090D-02 -0.753106D-02  0.731592D-01  0.266682D-01  0.000000D+00
     75  0.542248D-02  0.161119D-01 -0.516052D-01  0.849698D-01  0.000000D+00
     76  0.122363D-01  0.203612D-01  0.328244D-01  0.284628D-01  0.000000D+00
               61            62            63            64            65 
     61  0.226395D+00
     62 -0.356711D-02  0.204083D+00
     63  0.118100D-01 -0.616819D-02  0.182199D+00
     64  0.000000D+00  0.000000D+00  0.000000D+00  0.575349D-01
     65  0.757306D-01  0.382916D-02  0.212085D-01  0.000000D+00  0.290226D-01
     66  0.431151D-02  0.871260D-01 -0.757022D-02  0.000000D+00  0.293852D-02
     67  0.656133D-03 -0.156041D-03 -0.598587D-02  0.000000D+00 -0.666147D-03
     68 -0.399013D-02  0.356888D-02  0.498716D-02  0.000000D+00 -0.734026D-03
     69  0.944055D-02 -0.439377D-02  0.827501D-02  0.000000D+00  0.339230D-02
     70  0.000000D+00  0.000000D+00  0.000000D+00 -0.345828D-02  0.000000D+00
     71  0.000000D+00  0.000000D+00  0.000000D+00  0.498100D-03  0.000000D+00
     72  0.465998D-02  0.875357D-02  0.612853D-03  0.000000D+00  0.198822D-02
     73  0.511835D-01 -0.121919D+00  0.822423D-01  0.000000D+00  0.190447D-01
     74  0.481255D-01 -0.958480D-01  0.235171D-01  0.000000D+00  0.135769D-01
     75  0.881421D-01  0.955855D-01  0.783572D-01  0.000000D+00  0.397551D-01
     76  0.678755D-01  0.752945D-01  0.246661D-01  0.000000D+00  0.270783D-01
               66            67            68            69            70 
     66  0.383571D-01
     67  0.306103D-04  0.196370D-02
     68  0.134314D-02  0.121190D-02  0.154268D-02
     69 -0.200445D-02  0.123620D-02  0.115340D-02  0.206887D-02
     70  0.000000D+00  0.000000D+00  0.000000D+00  0.000000D+00  0.207921D-03
     71  0.000000D+00  0.000000D+00  0.000000D+00  0.000000D+00 -0.301678D-04
     72  0.426742D-02 -0.114277D-04  0.157740D-03 -0.406516D-04  0.000000D+00
     73 -0.526806D-01 -0.369158D-02 -0.185193D-02  0.722703D-02  0.000000D+00
     74 -0.409661D-01 -0.171905D-02 -0.304966D-02  0.420588D-02  0.000000D+00
     75  0.420590D-01 -0.357942D-02  0.173974D-02  0.381810D-02  0.000000D+00
     76  0.348617D-01 -0.156553D-02  0.454530D-03  0.134086D-02  0.000000D+00
               71            72            73            74            75 
     71  0.529933D-05
     72  0.000000D+00  0.768977D-03
     73  0.000000D+00 -0.441433D-02  0.123558D+00
     74  0.000000D+00 -0.406574D-02  0.816541D-01  0.640409D-01
     75  0.000000D+00  0.689658D-02 -0.450635D-02 -0.190702D-01  0.115497D+00
     76  0.000000D+00  0.565117D-02 -0.193367D-01 -0.198533D-01  0.756607D-01
               76 
     76  0.557132D-01
 Leave Link  502 at Sat Mar 07 21:18:54 2026, MaxMem=  1073741824 cpu:               7.0 elap:               6.7
 (Enter C:\G16W\l601.exe)
 Copying SCF densities to generalized density rwf, IOpCl= 0 IROHF=0.

 **********************************************************************

            Population analysis using the SCF Density.

 **********************************************************************

 Alpha  occ. eigenvalues --  -10.29596 -10.29370 -10.29255 -10.29033  -0.86738
 Alpha  occ. eigenvalues --   -0.84932  -0.68708  -0.67083  -0.56807  -0.55451
 Alpha  occ. eigenvalues --   -0.50865  -0.48002  -0.46606  -0.40042  -0.35590
 Alpha  occ. eigenvalues --   -0.34382
 Alpha virt. eigenvalues --    0.09153   0.09738   0.17661   0.20153   0.21775
 Alpha virt. eigenvalues --    0.22596   0.27500   0.32854   0.36213   0.40061
 Alpha virt. eigenvalues --    0.41438   0.52587   0.56549   0.60507   0.60674
 Alpha virt. eigenvalues --    0.65658   0.65857   0.70924   0.72755   0.74787
 Alpha virt. eigenvalues --    0.75339   0.78010   0.79352   0.94551   0.96131
 Alpha virt. eigenvalues --    0.97025   1.02548   1.05388   1.07709   1.08556
 Alpha virt. eigenvalues --    1.13658   1.17003   1.20113   1.30618   1.33045
 Alpha virt. eigenvalues --    1.34698   1.54648   1.54925   1.62304   1.62383
 Alpha virt. eigenvalues --    1.91354   1.91611   1.94340   2.03220   2.07202
 Alpha virt. eigenvalues --    2.11395   2.20208   2.23468   2.36737   2.40349
 Alpha virt. eigenvalues --    2.47358   2.47505   2.77756   2.81105   2.81462
 Alpha virt. eigenvalues --    2.85668   4.20260   4.23490   4.36306   4.37453
          Condensed to atoms (all electrons):
               1          2          3          4          5          6
     1  C    4.976000   0.394861   0.387632   0.651396  -0.034511  -0.036081
     2  H    0.394861   0.553008  -0.043439  -0.029476   0.003754  -0.007099
     3  H    0.387632  -0.043439   0.536380  -0.035331  -0.006441   0.004000
     4  C    0.651396  -0.029476  -0.035331   5.003313   0.382854   0.383753
     5  H   -0.034511   0.003754  -0.006441   0.382854   0.521850  -0.035042
     6  H   -0.036081  -0.007099   0.004000   0.383753  -0.035042   0.522338
     7  C   -0.005742  -0.002169  -0.005068   0.000526   0.000008  -0.000008
     8  H    0.000091  -0.000075   0.000353  -0.000007   0.000000   0.000000
     9  H   -0.004284  -0.000556   0.006593   0.000102   0.000017   0.000001
    10  C   -0.022559  -0.023935  -0.000575   0.001265  -0.000030   0.000044
    11  H   -0.023151   0.006484  -0.000801   0.000302   0.000004   0.000066
    12  H    0.000676   0.001032   0.000006  -0.000024   0.000000  -0.000001
               7          8          9         10         11         12
     1  C   -0.005742   0.000091  -0.004284  -0.022559  -0.023151   0.000676
     2  H   -0.002169  -0.000075  -0.000556  -0.023935   0.006484   0.001032
     3  H   -0.005068   0.000353   0.006593  -0.000575  -0.000801   0.000006
     4  C    0.000526  -0.000007   0.000102   0.001265   0.000302  -0.000024
     5  H    0.000008   0.000000   0.000017  -0.000030   0.000004   0.000000
     6  H   -0.000008   0.000000   0.000001   0.000044   0.000066  -0.000001
     7  C    5.001429   0.380750   0.383107   0.665771  -0.048833  -0.034569
     8  H    0.380750   0.517392  -0.033621  -0.033644   0.004347  -0.005833
     9  H    0.383107  -0.033621   0.529032  -0.044224  -0.005974   0.004155
    10  C    0.665771  -0.033644  -0.044224   5.013208   0.387608   0.378344
    11  H   -0.048833   0.004347  -0.005974   0.387608   0.556355  -0.033361
    12  H   -0.034569  -0.005833   0.004155   0.378344  -0.033361   0.522812
 Mulliken charges:
               1
     1  C   -0.284328
     2  H    0.147608
     3  H    0.156691
     4  C   -0.358673
     5  H    0.167535
     6  H    0.168029
     7  C   -0.335203
     8  H    0.170247
     9  H    0.165652
    10  C   -0.321274
    11  H    0.156954
    12  H    0.166762
 Sum of Mulliken charges =   0.00000
 Mulliken charges with hydrogens summed into heavy atoms:
               1
     1  C    0.019971
     4  C   -0.023109
     7  C    0.000696
    10  C    0.002442
 Electronic spatial extent (au):  <R**2>=            906.5274
 Charge=              0.0000 electrons
 Dipole moment (field-independent basis, Debye):
    X=              0.0000    Y=              0.0017    Z=              0.0351  Tot=              0.0351
 Quadrupole moment (field-independent basis, Debye-Ang):
   XX=            -30.1270   YY=            -23.8554   ZZ=            -23.9606
   XY=              0.0000   XZ=              0.0000   YZ=             -0.1150
 Traceless Quadrupole moment (field-independent basis, Debye-Ang):
   XX=             -4.1460   YY=              2.1256   ZZ=              2.0204
   XY=              0.0000   XZ=              0.0000   YZ=             -0.1150
 Octapole moment (field-independent basis, Debye-Ang**2):
  XXX=              0.0000  YYY=             -7.0886  ZZZ=           -130.2060  XYY=              0.0000
  XXY=             -2.9666  XXZ=            -54.2163  XZZ=              0.0000  YZZ=             -3.1410
  YYZ=            -42.8397  XYZ=              0.0000
 Hexadecapole moment (field-independent basis, Debye-Ang**3):
 XXXX=            -31.3157 YYYY=            -92.4684 ZZZZ=          -1026.7172 XXXY=              0.0000
 XXXZ=              0.0000 YYYX=              0.0000 YYYZ=            -21.1353 ZZZX=              0.0000
 ZZZY=            -27.5135 XXYY=            -22.3350 XXZZ=           -217.5713 YYZZ=           -180.6964
 XXYZ=             -9.5930 YYXZ=              0.0000 ZZXY=              0.0000
 N-N= 1.055139027684D+02 E-N=-5.738024424245D+02  KE= 1.556899381348D+02
 No NMR shielding tensors so no spin-rotation constants.
 Leave Link  601 at Sat Mar 07 21:18:55 2026, MaxMem=  1073741824 cpu:               1.0 elap:               0.5
 (Enter C:\G16W\l9999.exe)

 Test job not archived.
 1|1|UNPC-DESKTOP-NSU8USV|SP|RwB97XD|Gen|C4H8|AMD|07-Mar-2026|0||#P wB9
 7XD/ChkBasis IOp(3/33=1,3/32=2,5/33=3) NoSymmetry Guess=Read Geom=AllC
 heck||monomer optimized||0,1|C,0.,0.,0.6639490049|H,0.,0.9245160065,1.
 2353400049|H,0.,-0.9245160065,1.2353400049|C,0.,0.,-0.6639490049|H,0.,
 -0.9245160065,-1.2353400049|H,0.,0.9245160065,-1.2353400049|C,0.,-0.45
 38621221,3.7152935437|H,0.,-0.8560318921,4.7249850833|H,0.,-1.17711293
 77,2.9040440351|C,0.,0.8538621227,3.4847064844|H,0.,1.2560318975,2.475
 0149502|H,0.,1.5771129378,4.2959559983||Version=EM64W-G16RevB.01|HF=-1
 57.0852237|RMSD=4.579e-010|Dipole=0.,0.0006681,0.0137991|Quadrupole=-3
 .0824668,1.5803453,1.5021215,0.,0.,-0.0854776|PG=CS [SG(C4H8)]||@


 TRUST EVERYONE, BUT CUT THE CARDS.
 Job cpu time:       0 days  0 hours  0 minutes 17.0 seconds.
 Elapsed time:       0 days  0 hours  0 minutes 16.7 seconds.
 File lengths (MBytes):  RWF=      6 Int=      0 D2E=      0 Chk=      1 Scr=      1
 Normal termination of Gaussian 16 at Sat Mar 07 21:18:55 2026.
