[Molden Format]
[Title]
 Molden file created by orca_2mkl for BaseName=monomer1

[Atoms] AU
C    1   6          0.0000000000         0.0000000000         1.2546817769 
H    2   1          0.0000000000         1.7470820464         2.3344542823 
H    3   1          0.0000000000        -1.7470820464         2.3344542823 
C    4   6          0.0000000000         0.0000000000        -1.2546817769 
H    5   1          0.0000000000        -1.7470820464        -2.3344542823 
H    6   1          0.0000000000         1.7470820464        -2.3344542823 
[GTO]
  1 0
s   5 1.0 
     1238.4016938000         0.8208956682
      186.2900499200         1.4766449896
       42.2511763460         2.1526124058
       11.6765579320         2.1081722461
        3.5930506482         0.8290999933
s   1 1.0 
        0.4024514736         0.3601183351
s   1 1.0 
        0.1309018267         0.1551027052
p   3 1.0 
        9.4680970621         1.3467645142
        2.0103545142         1.0678070931
        0.5477100471         0.5108735714
p   1 1.0 
        0.1526861379         0.1360471976
d   1 1.0 
        0.8000000000         1.9292013661

  2 0
s   3 1.0 
       13.0107010000         0.1634903809
        1.9622572000         0.2773515510
        0.4445379600         0.3157501452
s   1 1.0 
        0.1219496200         0.1470772262
p   1 1.0 
        0.8000000000         1.0784563492

  3 0
s   3 1.0 
       13.0107010000         0.1634903809
        1.9622572000         0.2773515510
        0.4445379600         0.3157501452
s   1 1.0 
        0.1219496200         0.1470772262
p   1 1.0 
        0.8000000000         1.0784563492

  4 0
s   5 1.0 
     1238.4016938000         0.8208956682
      186.2900499200         1.4766449896
       42.2511763460         2.1526124058
       11.6765579320         2.1081722461
        3.5930506482         0.8290999933
s   1 1.0 
        0.4024514736         0.3601183351
s   1 1.0 
        0.1309018267         0.1551027052
p   3 1.0 
        9.4680970621         1.3467645142
        2.0103545142         1.0678070931
        0.5477100471         0.5108735714
p   1 1.0 
        0.1526861379         0.1360471976
d   1 1.0 
        0.8000000000         1.9292013661

  5 0
s   3 1.0 
       13.0107010000         0.1634903809
        1.9622572000         0.2773515510
        0.4445379600         0.3157501452
s   1 1.0 
        0.1219496200         0.1470772262
p   1 1.0 
        0.8000000000         1.0784563492

  6 0
s   3 1.0 
       13.0107010000         0.1634903809
        1.9622572000         0.2773515510
        0.4445379600         0.3157501452
s   1 1.0 
        0.1219496200         0.1470772262
p   1 1.0 
        0.8000000000         1.0784563492

[5D]
[7F]
[9G]
[MO]
 Sym=     1a
 Ene= -1.03615905986343E+01
 Spin= Alpha
 Occup= 2.000000
  1       0.700013835189
  2       0.026345269797
  3      -0.013522270616
  4      -0.000000000799
  5      -0.000000003288
  6       0.001966247859
  7      -0.000000000453
  8       0.000000002735
  9      -0.000577462838
 10       0.000337673281
 11      -0.000000000010
 12      -0.000000000441
 13      -0.000920364203
 14      -0.000000000062
 15      -0.002278361561
 16       0.003988620664
 17      -0.000000000230
 18       0.001169482224
 19       0.000267707252
 20      -0.002278357392
 21       0.003988624497
 22      -0.000000000055
 23      -0.001169481973
 24       0.000267705885
 25       0.700027764050
 26       0.026345928021
 27      -0.013522936661
 28      -0.000000000945
 29      -0.000000008650
 30      -0.001966231218
 31      -0.000000000687
 32      -0.000000003257
 33       0.000577347121
 34       0.000337706331
 35       0.000000000084
 36      -0.000000001534
 37      -0.000920395553
 38      -0.000000000057
 39      -0.002278415049
 40       0.003988722817
 41      -0.000000000240
 42      -0.001169524465
 43      -0.000267717101
 44      -0.002278435906
 45       0.003988715344
 46      -0.000000000136
 47       0.001169523750
 48      -0.000267719719
 Sym=     1a
 Ene= -1.03608244908340E+01
 Spin= Alpha
 Occup= 2.000000
  1      -0.699536895682
  2      -0.032417090058
  3       0.028569694851
  4      -0.000000000025
  5       0.000000001572
  6       0.001224299426
  7       0.000000000429
  8      -0.000000003983
  9      -0.002517335075
 10      -0.001348611913
 11       0.000000000088
 12       0.000000002562
 13       0.001754235126
 14      -0.000000000014
 15       0.002772859493
 16      -0.005089148176
 17      -0.000000000014
 18      -0.001538714679
 19      -0.001130303465
 20       0.002772863289
 21      -0.005089153090
 22      -0.000000000069
 23       0.001538722052
 24      -0.001130299530
 25       0.699522956077
 26       0.032416564655
 27      -0.028569431230
 28      -0.000000000386
 29      -0.000000010259
 30       0.001224333574
 31      -0.000000000739
 32      -0.000000001626
 33      -0.002517334591
 34       0.001348602343
 35       0.000000000139
 36       0.000000003453
 37      -0.001754217818
 38       0.000000000030
 39      -0.002772810301
 40       0.005089075752
 41       0.000000000067
 42      -0.001538689250
 43      -0.001130307603
 44      -0.002772829188
 45       0.005089069767
 46      -0.000000000019
 47       0.001538689291
 48      -0.001130304524
 Sym=     1a
 Ene= -8.74882996587483E-01
 Spin= Alpha
 Occup= 2.000000
  1       0.201496903997
  2      -0.384112814861
  3      -0.109886418132
  4      -0.000000015429
  5      -0.000000235454
  6       0.113369810147
  7      -0.000000024653
  8      -0.000001350130
  9       0.022398308919
 10      -0.013374946389
 11      -0.000000008981
 12       0.000000083142
 13       0.001447677042
 14       0.000000000377
 15      -0.105000205173
 16      -0.016941418007
 17       0.000000041034
 18       0.012165569185
 19       0.009251369535
 20      -0.105000377515
 21      -0.016942749962
 22       0.000000041999
 23      -0.012164987759
 24       0.009252819408
 25       0.201497244517
 26      -0.384115034079
 27      -0.109851604233
 28      -0.000000020055
 29      -0.000000227112
 30      -0.113369610241
 31      -0.000000019685
 32       0.000000672054
 33      -0.022375045069
 34      -0.013376411798
 35      -0.000000002017
 36       0.000000313183
 37       0.001446774398
 38       0.000000003100
 39      -0.105000024416
 40      -0.016940235955
 41       0.000000044294
 42      -0.012162348298
 43      -0.009256498160
 44      -0.105000301008
 45      -0.016940719119
 46       0.000000020983
 47       0.012161837118
 48      -0.009256728147
 Sym=     1a
 Ene= -6.85267319002501E-01
 Spin= Alpha
 Occup= 2.000000
  1       0.154537797570
  2      -0.314841675824
  3      -0.081398725131
  4       0.000000006064
  5       0.000001206368
  6      -0.164041685473
  7       0.000000085024
  8       0.000001161342
  9      -0.064758202190
 10       0.006818484106
 11       0.000000013633
 12       0.000000209307
 13       0.005156970168
 14      -0.000000001480
 15      -0.190661668810
 16      -0.050316456675
 17      -0.000000096253
 18       0.015917009901
 19       0.005539062432
 20      -0.190662612478
 21      -0.050315727516
 22      -0.000000097552
 23      -0.015917172669
 24       0.005537478269
 25      -0.154537375222
 26       0.314839821957
 27       0.081390147616
 28       0.000000007933
 29       0.000000274550
 30      -0.164043803543
 31      -0.000000068699
 32      -0.000000009261
 33      -0.064749908266
 34      -0.006820238992
 35      -0.000000008436
 36       0.000000298162
 37      -0.005157847856
 38       0.000000003230
 39       0.190664189088
 40       0.050320314939
 41       0.000000081417
 42       0.015921971613
 43       0.005531106573
 44       0.190664490799
 45       0.050320768693
 46       0.000000053187
 47      -0.015922472072
 48       0.005530976719
 Sym=     1a
 Ene= -5.75110982478116E-01
 Spin= Alpha
 Occup= 2.000000
  1      -0.000000226505
  2       0.000000673527
  3      -0.000001055842
  4       0.000000014231
  5       0.323650499866
  6       0.000002061104
  7       0.000000023931
  8       0.112822920624
  9       0.000001928121
 10       0.000000044550
 11      -0.000000001320
 12      -0.002416265290
 13      -0.000000120230
 14       0.000000000614
 15       0.202342397260
 16       0.065791615660
 17      -0.000000013637
 18      -0.006246089952
 19      -0.009449194620
 20      -0.202340727618
 21      -0.065791576589
 22      -0.000000004536
 23      -0.006246743102
 24       0.009449003757
 25       0.000000584767
 26      -0.000001250028
 27       0.000000451947
 28       0.000000012405
 29       0.323649987021
 30      -0.000001028258
 31      -0.000000005255
 32       0.112830739498
 33       0.000001277626
 34      -0.000000234199
 35      -0.000000014040
 36       0.002419632496
 37      -0.000000235327
 38      -0.000000009627
 39      -0.202342973151
 40      -0.065787692091
 41      -0.000000024792
 42      -0.006251328692
 43      -0.009444400306
 44       0.202345133473
 45       0.065788271886
 46       0.000000049855
 47      -0.006252148996
 48       0.009443962364
 Sym=     1a
 Ene= -5.24824576171784E-01
 Spin= Alpha
 Occup= 2.000000
  1      -0.014923874948
  2       0.035539607200
  3      -0.010216035890
  4      -0.000000031179
  5       0.000000732163
  6      -0.413501580103
  7      -0.000000054681
  8      -0.000001172017
  9      -0.133870443322
 10       0.011352849503
 11      -0.000000019065
 12      -0.000000133514
 13       0.006938414344
 14       0.000000001191
 15      -0.166499331211
 16      -0.066350552749
 17       0.000000102880
 18       0.010396886781
 19      -0.004171422940
 20      -0.166500935431
 21      -0.066352501005
 22       0.000000103761
 23      -0.010397051017
 24      -0.004170117480
 25      -0.014924588844
 26       0.035538699777
 27      -0.010160505577
 28      -0.000000035771
 29       0.000001543771
 30       0.413500310886
 31      -0.000000037183
 32       0.000001633719
 33       0.133905815644
 34       0.011350648116
 35      -0.000000009923
 36       0.000000316258
 37       0.006937018333
 38       0.000000002255
 39      -0.166499325543
 40      -0.066349152795
 41       0.000000073622
 42      -0.010392314662
 43       0.004163911479
 44      -0.166498033829
 45      -0.066348827124
 46       0.000000050137
 47       0.010391838400
 48       0.004163835763
 Sym=     1a
 Ene= -4.52304894894268E-01
 Spin= Alpha
 Occup= 2.000000
  1      -0.000000159696
  2       0.000000045080
  3       0.000000533242
  4      -0.000000043192
  5       0.304539351162
  6      -0.000000504133
  7      -0.000000030229
  8       0.065864899464
  9      -0.000001458570
 10       0.000000014174
 11      -0.000000004366
 12       0.023763891409
 13       0.000000109797
 14      -0.000000000040
 15       0.268623710739
 16       0.156552048394
 17       0.000000015222
 18      -0.005921309211
 19      -0.009053168108
 20      -0.268623360131
 21      -0.156551162274
 22       0.000000005188
 23      -0.005920162252
 24       0.009053626339
 25       0.000000321929
 26      -0.000001047222
 27      -0.000002711781
 28      -0.000000038909
 29      -0.304540144105
 30       0.000000897611
 31      -0.000000033969
 32      -0.065860168753
 33       0.000000665513
 34      -0.000000232578
 35      -0.000000022161
 36       0.023766282258
 37      -0.000000308079
 38      -0.000000014638
 39       0.268621889656
 40       0.156554944322
 41      -0.000000023008
 42       0.005915221747
 43       0.009059965585
 44      -0.268619749114
 45      -0.156554929223
 46       0.000000064195
 47       0.005914278222
 48      -0.009060363688
 Sym=     1a
 Ene= -3.74625835685659E-01
 Spin= Alpha
 Occup= 2.000000
  1       0.000000022297
  2      -0.000000176534
  3       0.000001490936
  4       0.407289974376
  5       0.000000010244
  6      -0.000000056315
  7       0.276954806893
  8      -0.000000005741
  9      -0.000001272388
 10      -0.000000060843
 11      -0.020085002484
 12       0.000000017270
 13       0.000000011802
 14      -0.000000159737
 15       0.000000057080
 16       0.000000228998
 17       0.011863650972
 18      -0.000000300948
 19       0.000000238803
 20       0.000000013749
 21       0.000000175969
 22       0.011862522757
 23       0.000000297845
 24       0.000000254835
 25       0.000000003396
 26       0.000000058399
 27      -0.000001822295
 28       0.407290439138
 29      -0.000000095984
 30       0.000000049223
 31       0.276956602009
 32      -0.000000023385
 33      -0.000001014181
 34       0.000000031368
 35       0.020084685442
 36       0.000000095843
 37       0.000000008509
 38       0.000000081932
 39      -0.000000009822
 40      -0.000000031596
 41       0.011862112379
 42      -0.000000207982
 43       0.000000236886
 44       0.000000092202
 45      -0.000000114114
 46       0.011861547008
 47      -0.000000004807
 48       0.000000088269
 Sym=     1a
 Ene= 9.61951594414818E-02
 Spin= Alpha
 Occup= 0.000000
  1      -0.000000002200
  2       0.000000031922
  3      -0.000000030986
  4       0.402842099370
  5       0.000000005931
  6       0.000000009396
  7       0.676628338124
  8       0.000000037937
  9       0.000000176821
 10       0.000000018685
 11       0.023313480998
 12       0.000000006385
 13      -0.000000008191
 14       0.000000007411
 15      -0.000000011426
 16      -0.000000101986
 17       0.019993139437
 18       0.000000098582
 19      -0.000000072952
 20      -0.000000012845
 21      -0.000000057192
 22       0.019993367801
 23      -0.000000092307
 24      -0.000000079412
 25       0.000000009187
 26      -0.000000033643
 27       0.000000109539
 28      -0.402841732357
 29      -0.000000015239
 30      -0.000000004957
 31      -0.676628030993
 32      -0.000000048138
 33       0.000000087673
 34       0.000000001166
 35       0.023313589615
 36       0.000000024385
 37      -0.000000007788
 38       0.000000001169
 39       0.000000010827
 40       0.000000027631
 41      -0.019993479741
 42      -0.000000031872
 43       0.000000032703
 44       0.000000062285
 45       0.000000053252
 46      -0.019993630802
 47      -0.000000003688
 48       0.000000022947
 Sym=     1a
 Ene= 1.56816628586160E-01
 Spin= Alpha
 Occup= 0.000000
  1       0.081704791099
  2      -0.160591633208
  3      -1.520165936073
  4      -0.000000008367
  5       0.000000185941
  6      -0.150840108646
  7      -0.000000037566
  8       0.000000445837
  9      -0.548693436548
 10      -0.006167257305
 11      -0.000000002458
 12       0.000000011102
 13      -0.002370644705
 14      -0.000000000382
 15       0.028901574832
 16       1.077462067642
 17       0.000000008450
 18       0.002277991716
 19      -0.004973722542
 20       0.028901625963
 21       1.077463751128
 22       0.000000008336
 23      -0.002277947142
 24      -0.004973703890
 25       0.081705623766
 26      -0.160593050177
 27      -1.520184593908
 28       0.000000017640
 29      -0.000000005737
 30       0.150841174111
 31       0.000000047847
 32       0.000000275573
 33       0.548694841687
 34      -0.006167193485
 35       0.000000001225
 36      -0.000000050822
 37      -0.002370568846
 38      -0.000000000748
 39       0.028902057659
 40       1.077473739958
 41      -0.000000003915
 42      -0.002278331883
 43       0.004974126135
 44       0.028901813764
 45       1.077473630472
 46      -0.000000003633
 47       0.002278370623
 48       0.004973974000
 Sym=     1a
 Ene= 1.77803961364217E-01
 Spin= Alpha
 Occup= 0.000000
  1       0.000000032020
  2      -0.000000382477
  3       0.000004477172
  4       0.000000005047
  5       0.253257652318
  6       0.000000016202
  7      -0.000000006040
  8       0.720352776056
  9      -0.000002153667
 10       0.000000002316
 11      -0.000000000414
 12      -0.017241564898
 13       0.000000004362
 14      -0.000000000481
 15      -0.065705321298
 16      -1.099932121712
 17       0.000000001731
 18       0.002616481004
 19      -0.001582317598
 20       0.065705347594
 21       1.099931932636
 22       0.000000000663
 23       0.002616668073
 24       0.001582529144
 25      -0.000000128714
 26       0.000000555816
 27      -0.000003429449
 28       0.000000007283
 29       0.253258742478
 30      -0.000000228484
 31       0.000000005242
 32       0.720355747401
 33      -0.000002606241
 34       0.000000005606
 35       0.000000003207
 36       0.017241057581
 37       0.000000070501
 38       0.000000002516
 39       0.065705527239
 40       1.099935349633
 41      -0.000000000301
 42       0.002617245593
 43      -0.001583089397
 44      -0.065706084018
 45      -1.099936217099
 46      -0.000000010222
 47       0.002617245317
 48       0.001583166077
 Sym=     1a
 Ene= 1.89591091497526E-01
 Spin= Alpha
 Occup= 0.000000
  1      -0.104595915723
  2       0.173520623602
  3       2.167654326730
  4      -0.000000012057
  5      -0.000000109853
  6       0.097222371296
  7      -0.000000016437
  8      -0.000001243761
  9       0.186337421336
 10      -0.004864217902
 11      -0.000000000474
 12       0.000000014138
 13      -0.005009047331
 14      -0.000000000203
 15      -0.032685141566
 16      -1.205884389800
 17      -0.000000001068
 18       0.001757796473
 19      -0.002258247972
 20      -0.032685106534
 21      -1.205886224756
 22      -0.000000000402
 23      -0.001757681796
 24      -0.002258221996
 25       0.104595184241
 26      -0.173519275697
 27      -2.167640388810
 28       0.000000004925
 29       0.000000126771
 30       0.097221526480
 31       0.000000028263
 32       0.000001783560
 33       0.186332438089
 34       0.004864124903
 35      -0.000000001312
 36       0.000000055845
 37       0.005009001900
 38       0.000000000189
 39       0.032685101087
 40       1.205877063085
 41       0.000000009212
 42       0.001758252052
 43      -0.002259092311
 44       0.032685216301
 45       1.205873615482
 46       0.000000008766
 47      -0.001758204219
 48      -0.002259063505
 Sym=     1a
 Ene= 2.56355029511423E-01
 Spin= Alpha
 Occup= 0.000000
  1      -0.000000123495
  2       0.000000629342
  3      -0.000005031414
  4      -0.000000008971
  5       0.235337338113
  6       0.000000259330
  7       0.000000005427
  8       1.531264346722
  9       0.000003997429
 10      -0.000000015270
 11      -0.000000000487
 12       0.018563390828
 13       0.000000033422
 14      -0.000000000470
 15       0.014626689485
 16      -1.592959775141
 17      -0.000000000055
 18       0.005965647317
 19       0.008513740531
 20      -0.014626755733
 21       1.592957478341
 22      -0.000000000347
 23       0.005965610301
 24      -0.008513843568
 25       0.000000074425
 26      -0.000000605379
 27       0.000006464756
 28       0.000000006740
 29      -0.235336481742
 30       0.000000163138
 31      -0.000000002137
 32      -1.531262016414
 33       0.000003451668
 34       0.000000031032
 35      -0.000000000761
 36       0.018563517660
 37      -0.000000010370
 38      -0.000000002384
 39       0.014627019531
 40      -1.592955127668
 41      -0.000000001733
 42      -0.005965647521
 43      -0.008513727677
 44      -0.014627126612
 45       1.592955673060
 46      -0.000000001559
 47      -0.005965641120
 48       0.008513604902
 Sym=     1a
 Ene= 4.10601166471507E-01
 Spin= Alpha
 Occup= 0.000000
  1       0.063550094419
  2      -0.117589771391
  3      -5.028495328265
  4       0.000000015076
  5      -0.000000380553
  6       0.199775825986
  7      -0.000000066117
  8       0.000000652735
  9       3.380786138643
 10       0.027875694956
 11       0.000000000304
 12      -0.000000037958
 13       0.016167605819
 14      -0.000000000651
 15      -0.124372234601
 16      -0.218964885082
 17       0.000000023747
 18      -0.012496124505
 19       0.011608014490
 20      -0.124372118270
 21      -0.218964670485
 22       0.000000023238
 23       0.012495954798
 24       0.011607733679
 25      -0.063549986770
 26       0.117589074706
 27       5.028490996755
 28      -0.000000022192
 29       0.000000633820
 30       0.199773727811
 31      -0.000000028601
 32      -0.000000965294
 33       3.380793233527
 34      -0.027876049670
 35       0.000000003915
 36       0.000000072642
 37      -0.016167839464
 38       0.000000000656
 39       0.124374261181
 40       0.218965719245
 41       0.000000003340
 42      -0.012496084132
 43       0.011607781813
 44       0.124375406374
 45       0.218964186581
 46      -0.000000001236
 47       0.012495991141
 48       0.011608087424
 Sym=     1a
 Ene= 4.82753237145243E-01
 Spin= Alpha
 Occup= 0.000000
  1       0.089791305952
  2      -0.774526992608
  3       0.669237240638
  4      -0.000000043345
  5      -0.000000083280
  6       0.387407271395
  7       0.000000020377
  8       0.000000222460
  9      -0.756993525437
 10      -0.049370529468
 11      -0.000000000899
 12       0.000000007871
 13       0.007212224984
 14       0.000000000548
 15       0.033777345421
 16      -0.177528387299
 17       0.000000004094
 18       0.004351249574
 19      -0.034509166589
 20       0.033776592141
 21      -0.177527422429
 22       0.000000002245
 23      -0.004351641563
 24      -0.034509815393
 25       0.089791223816
 26      -0.774526034190
 27       0.669206054214
 28       0.000000006501
 29       0.000000219848
 30      -0.387408566923
 31       0.000000033665
 32      -0.000000563147
 33       0.756975320822
 34      -0.049370381620
 35      -0.000000001134
 36      -0.000000106232
 37       0.007212361905
 38      -0.000000000365
 39       0.033776172480
 40      -0.177527279018
 41      -0.000000008736
 42      -0.004351526682
 43       0.034509823218
 44       0.033776551933
 45      -0.177527043035
 46       0.000000000927
 47       0.004351734219
 48       0.034509999441
 Sym=     1a
 Ene= 5.16371445677787E-01
 Spin= Alpha
 Occup= 0.000000
  1      -0.000000532494
  2       0.000004095493
  3      -0.000005537119
  4      -0.000000031579
  5       0.029118642337
  6       0.000000025461
  7      -0.000000004170
  8      -0.431126595109
  9      -0.000006507933
 10       0.000000018149
 11       0.000000001163
 12       0.099307752990
 13      -0.000000443703
 14       0.000000001049
 15       0.581823181834
 16      -0.250863458553
 17      -0.000000002164
 18      -0.001768260290
 19       0.053163788444
 20      -0.581817654742
 21       0.250867960058
 22      -0.000000002723
 23      -0.001768697867
 24      -0.053164234311
 25      -0.000000306020
 26       0.000004133811
 27      -0.000016122276
 28       0.000000000677
 29       0.029118653914
 30      -0.000000323754
 31      -0.000000031921
 32      -0.431125075384
 33       0.000001980963
 34       0.000000023523
 35      -0.000000005015
 36      -0.099307424318
 37      -0.000000594042
 38      -0.000000001001
 39      -0.581818832725
 40       0.250868424195
 41       0.000000000928
 42      -0.001769874700
 43       0.053165674182
 44       0.581827051664
 45      -0.250864720762
 46       0.000000015707
 47      -0.001769491451
 48      -0.053165439911
 Sym=     1a
 Ene= 5.27265467878288E-01
 Spin= Alpha
 Occup= 0.000000
  1      -0.070429365296
  2       0.612828215120
  3      -1.685178955333
  4      -0.000000035965
  5      -0.000000334255
  6       0.110823576676
  7      -0.000000018977
  8       0.000002300148
  9      -0.745022838871
 10      -0.001851005621
 11      -0.000000001894
 12      -0.000000636167
 13      -0.069992261400
 14      -0.000000002046
 15       0.494408781158
 16       0.366694572774
 17       0.000000011589
 18       0.015127926955
 19      -0.017066581832
 20       0.494417313226
 21       0.366691342041
 22       0.000000017799
 23      -0.015127533015
 24      -0.017065416521
 25      -0.070428988091
 26       0.612829163672
 27      -1.685219562644
 28       0.000000045175
 29      -0.000000343698
 30      -0.110825591082
 31      -0.000000020928
 32       0.000003947896
 33       0.745003096202
 34      -0.001850684797
 35      -0.000000000224
 36       0.000000648017
 37      -0.069992463450
 38      -0.000000000161
 39       0.494419375619
 40       0.366691559570
 41       0.000000007767
 42      -0.015127967469
 43       0.017065890364
 44       0.494411594769
 45       0.366693749129
 46      -0.000000001120
 47       0.015127741459
 48       0.017066116978
 Sym=     1a
 Ene= 5.86284519497223E-01
 Spin= Alpha
 Occup= 0.000000
  1       0.000000003785
  2      -0.000000022044
  3       0.000000053236
  4      -0.692513688304
  5       0.000000002988
  6      -0.000000021242
  7       0.622470215087
  8       0.000000004936
  9       0.000000095027
 10       0.000000003457
 11       0.052901325412
 12       0.000000000395
 13      -0.000000001038
 14       0.000000007234
 15      -0.000000016890
 16      -0.000000032729
 17      -0.009005185332
 18       0.000000000667
 19       0.000000003854
 20      -0.000000014364
 21      -0.000000027658
 22      -0.009005180534
 23      -0.000000001119
 24       0.000000003048
 25      -0.000000003883
 26       0.000000050599
 27      -0.000000047657
 28      -0.692515655957
 29       0.000000008563
 30       0.000000026758
 31       0.622473140118
 32      -0.000000029127
 33       0.000000026254
 34       0.000000001159
 35      -0.052901210173
 36       0.000000004158
 37      -0.000000009256
 38      -0.000000000186
 39       0.000000044430
 40      -0.000000014030
 41      -0.009005233836
 42      -0.000000008441
 43       0.000000001796
 44       0.000000057298
 45       0.000000004562
 46      -0.009005226516
 47       0.000000004873
 48       0.000000007845
 Sym=     1a
 Ene= 6.36841090967018E-01
 Spin= Alpha
 Occup= 0.000000
  1       0.041001956910
  2       0.253036041522
  3      -3.213547905114
  4       0.000000095932
  5       0.000000545563
  6       0.148344154663
  7      -0.000000071528
  8      -0.000000137906
  9       0.687305483302
 10       0.021626599658
 11       0.000000001879
 12       0.000000002366
 13      -0.078261939968
 14       0.000000002336
 15       0.629745965115
 16       0.044773185128
 17      -0.000000001166
 18       0.043208451675
 19      -0.000037445488
 20       0.629744459984
 21       0.044772285531
 22      -0.000000008955
 23      -0.043208791925
 24      -0.000037650173
 25      -0.041003185180
 26      -0.253028373537
 27       3.213533238245
 28      -0.000000090448
 29       0.000000888833
 30       0.148341610081
 31       0.000000189112
 32      -0.000002600955
 33       0.687309477905
 34      -0.021626483845
 35       0.000000008582
 36      -0.000000045261
 37       0.078261863868
 38       0.000000000030
 39      -0.629745348668
 40      -0.044768221317
 41      -0.000000010811
 42       0.043208148354
 43      -0.000036232348
 44      -0.629744573263
 45      -0.044766514945
 46      -0.000000014330
 47      -0.043208570061
 48      -0.000036511336
 Sym=     1a
 Ene= 6.76297838387763E-01
 Spin= Alpha
 Occup= 0.000000
  1      -0.000000022817
  2       0.000000080624
  3       0.000000050702
  4       0.757662004717
  5       0.000000021241
  6       0.000000004045
  7      -1.137935476152
  8      -0.000000072222
  9      -0.000000191810
 10      -0.000000008326
 11       0.022881086616
 12      -0.000000000114
 13       0.000000013948
 14      -0.000000018554
 15      -0.000000066821
 16       0.000000144301
 17       0.020292806740
 18      -0.000000029172
 19       0.000000005302
 20      -0.000000094238
 21       0.000000094449
 22       0.020292751457
 23       0.000000023502
 24       0.000000009378
 25       0.000000004219
 26       0.000000017443
 27      -0.000000346107
 28      -0.757660295698
 29      -0.000000007480
 30      -0.000000061073
 31       1.137933816253
 32       0.000000047793
 33      -0.000000022658
 34       0.000000007716
 35       0.022881314721
 36      -0.000000009010
 37      -0.000000009570
 38      -0.000000004397
 39       0.000000076988
 40       0.000000025115
 41      -0.020292719850
 42       0.000000007254
 43      -0.000000005281
 44       0.000000076596
 45      -0.000000016669
 46      -0.020292660969
 47       0.000000002592
 48      -0.000000012532
 Sym=     1a
 Ene= 7.30310749104012E-01
 Spin= Alpha
 Occup= 0.000000
  1      -0.161612029662
  2       0.906248047725
  3      -1.918586095800
  4      -0.000000051882
  5      -0.000000081730
  6       0.413901291663
  7       0.000000105646
  8      -0.000000348255
  9      -0.626093254368
 10       0.011723715336
 11       0.000000003857
 12       0.000000053658
 13       0.081175248577
 14      -0.000000000293
 15      -0.414429299751
 16       0.997332256940
 17      -0.000000004045
 18      -0.102076397001
 19      -0.028454380580
 20      -0.414430950473
 21       0.997332422333
 22      -0.000000003960
 23       0.102076409510
 24      -0.028454406807
 25      -0.161615193715
 26       0.906272748763
 27      -1.918668052542
 28      -0.000000006033
 29       0.000000498735
 30      -0.413908746163
 31      -0.000000089699
 32      -0.000000971341
 33       0.626103080877
 34       0.011724153731
 35      -0.000000010784
 36       0.000000023099
 37       0.081175689119
 38      -0.000000000411
 39      -0.414431219204
 40       0.997357544948
 41       0.000000011704
 42       0.102078527514
 43       0.028453886173
 44      -0.414431405724
 45       0.997359148214
 46       0.000000008436
 47      -0.102078633154
 48       0.028454123798
 Sym=     1a
 Ene= 7.49764350001090E-01
 Spin= Alpha
 Occup= 0.000000
  1      -0.211668922487
  2       1.419998488933
  3      -5.001670735161
  4      -0.000000051110
  5      -0.000001305455
  6       0.237789414081
  7       0.000000049858
  8       0.000005657025
  9       0.194719360114
 10      -0.005480018100
 11       0.000000004218
 12      -0.000000152475
 13       0.049078318299
 14       0.000000000392
 15      -0.190114173962
 16       1.313101970096
 17      -0.000000000408
 18      -0.080649804294
 19      -0.045909003557
 20      -0.190114567625