[Molden Format]
[Title]
 Molden file created by orca_2mkl for BaseName=monomer2

[Atoms] AU
C    1   6          0.0000000000        -0.8576751094         7.0208872788 
H    2   1          0.0000000000        -1.6176658340         8.9289277503 
H    3   1          0.0000000000        -2.2244210664         5.4878478787 
C    4   6          0.0000000000         1.6135655629         6.5851408854 
H    5   1          0.0000000000         2.3735562876         4.6771004140 
H    6   1          0.0000000000         2.9803115200         8.1181802856 
[GTO]
  1 0
s   5 1.0 
     1238.4016938000         0.8208956682
      186.2900499200         1.4766449896
       42.2511763460         2.1526124058
       11.6765579320         2.1081722461
        3.5930506482         0.8290999933
s   1 1.0 
        0.4024514736         0.3601183351
s   1 1.0 
        0.1309018267         0.1551027052
p   3 1.0 
        9.4680970621         1.3467645142
        2.0103545142         1.0678070931
        0.5477100471         0.5108735714
p   1 1.0 
        0.1526861379         0.1360471976
d   1 1.0 
        0.8000000000         1.9292013661

  2 0
s   3 1.0 
       13.0107010000         0.1634903809
        1.9622572000         0.2773515510
        0.4445379600         0.3157501452
s   1 1.0 
        0.1219496200         0.1470772262
p   1 1.0 
        0.8000000000         1.0784563492

  3 0
s   3 1.0 
       13.0107010000         0.1634903809
        1.9622572000         0.2773515510
        0.4445379600         0.3157501452
s   1 1.0 
        0.1219496200         0.1470772262
p   1 1.0 
        0.8000000000         1.0784563492

  4 0
s   5 1.0 
     1238.4016938000         0.8208956682
      186.2900499200         1.4766449896
       42.2511763460         2.1526124058
       11.6765579320         2.1081722461
        3.5930506482         0.8290999933
s   1 1.0 
        0.4024514736         0.3601183351
s   1 1.0 
        0.1309018267         0.1551027052
p   3 1.0 
        9.4680970621         1.3467645142
        2.0103545142         1.0678070931
        0.5477100471         0.5108735714
p   1 1.0 
        0.1526861379         0.1360471976
d   1 1.0 
        0.8000000000         1.9292013661

  5 0
s   3 1.0 
       13.0107010000         0.1634903809
        1.9622572000         0.2773515510
        0.4445379600         0.3157501452
s   1 1.0 
        0.1219496200         0.1470772262
p   1 1.0 
        0.8000000000         1.0784563492

  6 0
s   3 1.0 
       13.0107010000         0.1634903809
        1.9622572000         0.2773515510
        0.4445379600         0.3157501452
s   1 1.0 
        0.1219496200         0.1470772262
p   1 1.0 
        0.8000000000         1.0784563492

[5D]
[7F]
[9G]
[MO]
 Sym=     1a
 Ene= -1.03616304794059E+01
 Spin= Alpha
 Occup= 2.000000
  1       0.700036096609
  2       0.026394387532
  3      -0.013579079657
  4       0.000000000242
  5      -0.001926612368
  6       0.000336474228
  7       0.000000000592
  8       0.000552089727
  9      -0.000020001431
 10       0.000630835581
 11       0.000000000897
 12       0.000040016649
 13      -0.000746824359
 14       0.000000000271
 15      -0.002302405139
 16       0.003975955770
 17       0.000000000618
 18      -0.000064882271
 19       0.001206200556
 20      -0.002267335450
 21       0.004040766772
 22      -0.000000000114
 23      -0.000461545551
 24      -0.001099985325
 25       0.699996409147
 26       0.026392558946
 27      -0.013577482865
 28      -0.000000000132
 29       0.001926681019
 30      -0.000336486815
 31       0.000000000064
 32      -0.000552221520
 33       0.000020025266
 34       0.000630786053
 35       0.000000000589
 36       0.000040017816
 37      -0.000746709613
 38       0.000000000159
 39      -0.002302253952
 40       0.003975666857
 41      -0.000000000542
 42       0.000064832327
 43      -0.001206111551
 44      -0.002267164669
 45       0.004040480900
 46      -0.000000000116
 47       0.000461464376
 48       0.001099908039
 Sym=     1a
 Ene= -1.03608643461296E+01
 Spin= Alpha
 Occup= 2.000000
  1       0.699506541715
  2       0.032424608848
  3      -0.028533179249
  4      -0.000000002211
  5       0.001209821397
  6      -0.000217643055
  7      -0.000000001003
  8      -0.002529895110
  9       0.000467238962
 10       0.000868911781
 11      -0.000000000867
 12      -0.000107452359
 13      -0.002053275515
 14      -0.000000000548
 15      -0.002788415229
 16       0.005034155934
 17      -0.000000000025
 18      -0.000862037526
 19       0.001721184909
 20      -0.002786027016
 21       0.005070918684
 22      -0.000000000373
 23      -0.001384429752
 24      -0.001325796668
 25      -0.699546258357
 26      -0.032426097196
 27       0.028533954964
 28      -0.000000001882
 29       0.001209720208
 30      -0.000217628149
 31      -0.000000000841
 32      -0.002529865017
 33       0.000467225241
 34      -0.000868945530
 35       0.000000000162
 36       0.000107442850
 37       0.002053318360
 38       0.000000000207
 39       0.002788541154
 40      -0.005034388342
 41      -0.000000000240
 42      -0.000862038459
 43       0.001721242397
 44       0.002786172844
 45      -0.005071142218
 46      -0.000000000378
 47      -0.001384457412
 48      -0.001325862753
 Sym=     1a
 Ene= -8.74883035760006E-01
 Spin= Alpha
 Occup= 2.000000
  1       0.201489289175
  2      -0.384110564116
  3      -0.109989323756
  4       0.000000031648
  5      -0.111686445567
  6       0.019681228225
  7       0.000000000758
  8      -0.021922781347
  9       0.004120260015
 10       0.004822047933
 11       0.000000029414
 12       0.003686151458
 13       0.011972074238
 14       0.000000020068
 15      -0.104994375785
 16      -0.017002943635
 17      -0.000000098566
 18      -0.006999664605
 19       0.013579135541
 20      -0.105001199869
 21      -0.016748386203
 22       0.000000180820
 23      -0.011227274456
 24      -0.010375568939
 25       0.201489401514
 26      -0.384111502761
 27      -0.109982015165
 28       0.000000027195
 29       0.111686641139
 30      -0.019679986768
 31       0.000000018188
 32       0.021917564499
 33      -0.004119403166
 34       0.004822120983
 35       0.000000006200
 36       0.003686881951
 37       0.011972299573
 38      -0.000000006464
 39      -0.104994292327
 40      -0.017002371444
 41       0.000000006856
 42       0.007001309628
 43      -0.013577183384
 44      -0.105001190028
 45      -0.016747458141
 46       0.000000038343
 47       0.011227648078
 48       0.010375546397
 Sym=     1a
 Ene= -6.85269779441870E-01
 Spin= Alpha
 Occup= 2.000000
  1      -0.154527625337
  2       0.314781772215
  3       0.081210459338
  4       0.000000010175
  5      -0.161531680936
  6       0.028440544074
  7      -0.000000047416
  8      -0.063721211288
  9       0.011191876994
 10       0.007473023942
 11       0.000000017347
 12       0.002933413099
 13       0.003114263839
 14       0.000000033198
 15       0.190612231349
 16       0.050495320472
 17      -0.000000116539
 18       0.002675331023
 19      -0.016643879254
 20       0.190742612402
 21       0.050425430917
 22       0.000000302708
 23       0.008220431896
 24       0.014744360494
 25       0.154527469999
 26      -0.314780537564
 27      -0.081207928482
 28       0.000000005011
 29      -0.161532262443
 30       0.028438153852
 31       0.000000044748
 32      -0.063719440609
 33       0.011190791717
 34      -0.007472511014
 35      -0.000000014101
 36      -0.002935485038
 37      -0.003114350585
 38       0.000000013576
 39      -0.190613286540
 40      -0.050496971176
 41      -0.000000018178
 42       0.002673279557
 43      -0.016648083248
 44      -0.190742684792
 45      -0.050426991361
 46      -0.000000074693
 47       0.008219927791
 48       0.014743996917
 Sym=     1a
 Ene= -5.75205291778017E-01
 Spin= Alpha
 Occup= 2.000000
  1      -0.000031324227
  2       0.000126455070
  3      -0.000988487734
  4      -0.000000106533
  5       0.056180299658
  6       0.318739467134
  7       0.000000015184
  8       0.019158896122
  9       0.111438754514
 10      -0.000697145448
 11      -0.000000065048
 12       0.002288239629
 13      -0.000387002139
 14      -0.000000030824
 15       0.202331214517
 16       0.065604329147
 17       0.000000010767
 18       0.008178864027
 19      -0.007796065795
 20      -0.202287836771
 21      -0.065448530687
 22      -0.000000279611
 23      -0.010369649462
 24      -0.004531735306
 25       0.000030489039
 26      -0.000123553210
 27       0.000992180965
 28      -0.000000105943
 29       0.056175788153
 30       0.318739467623
 31      -0.000000142542
 32       0.019161058695
 33       0.111443847864
 34       0.000697514049
 35       0.000000017658
 36      -0.002288883750
 37       0.000386955723
 38      -0.000000005572
 39      -0.202335520052
 40      -0.065605207574
 41       0.000000011230
 42       0.008176607728
 43      -0.007799604045
 44       0.202283913910
 45       0.065445420252
 46       0.000000079432
 47      -0.010369136658
 48      -0.004531457389
 Sym=     1a
 Ene= -5.24826974861833E-01
 Spin= Alpha
 Occup= 2.000000
  1       0.014934125831
  2      -0.035629187608
  3       0.010286062518
  4      -0.000000108976
  5      -0.407197087792
  6       0.071737057474
  7      -0.000000052115
  8      -0.131893491673
  9       0.023106920482
 10       0.010984625541
 11      -0.000000011291
 12       0.004573759223
 13       0.005977995672
 14      -0.000000027122
 15       0.166449663380
 16       0.066404664493
 17       0.000000162265
 18      -0.005929960796
 19      -0.009522435857
 20       0.166533765689
 21       0.066292116257
 22      -0.000000293181
 23      -0.002309748252
 24       0.010980091034
 25       0.014934176841
 26      -0.035627862200
 27       0.010276164573
 28      -0.000000109390
 29       0.407197250125
 30      -0.071734404728
 31      -0.000000067724
 32       0.131901227505
 33      -0.023107065960
 34       0.010984847681
 35      -0.000000012562
 36       0.004572353358
 37       0.005977498938
 38       0.000000013245
 39       0.166445778257
 40       0.066401778520
 41      -0.000000018389
 42       0.005928207573
 43       0.009518265874
 44       0.166536837398
 45       0.066291666803
 46      -0.000000084552
 47       0.002309170092
 48      -0.010980184541
 Sym=     1a
 Ene= -4.52360870026687E-01
 Spin= Alpha
 Occup= 2.000000
  1       0.000010824420
  2      -0.000040775885
  3       0.000172677707
  4      -0.000000033577
  5      -0.052831010254
  6      -0.299960692548
  7       0.000000020599
  8      -0.011464159446
  9      -0.064888420777
 10      -0.007033172868
 11      -0.000000097798
 12       0.022301629192
 13      -0.004072768462
 14      -0.000000019771
 15      -0.268648492554
 16      -0.156665551902
 17       0.000000096511
 18      -0.007856910972
 19       0.007427784601
 20       0.268568239627
 21       0.156391476932
 22      -0.000000352385
 23       0.009949525133
 24       0.004267766543
 25       0.000011786938
 26      -0.000043874416
 27       0.000178483596
 28      -0.000000008319
 29       0.052829541832
 30       0.299962510974
 31       0.000000005621
 32       0.011454902944
 33       0.064888162297
 34      -0.007033895584
 35      -0.000000027303
 36       0.022302329581
 37      -0.004073156100
 38       0.000000020940
 39      -0.268645492935
 40      -0.156663544444
 41      -0.000000014844
 42       0.007859075263
 43      -0.007423412409
 44       0.268570158145
 45       0.156392534803
 46      -0.000000114890
 47      -0.009950131944
 48      -0.004267881863
 Sym=     1a
 Ene= -3.74628723334360E-01
 Spin= Alpha
 Occup= 2.000000
  1      -0.000000057409
  2       0.000000350799
  3       0.000000328197
  4       0.407271996425
  5      -0.000000206879
  6       0.000000578555
  7       0.276975082698
  8      -0.000000312642
  9       0.000000793764
 10       0.000000237716
 11      -0.003473842515
 12      -0.000000345481
 13       0.000000031531
 14       0.019771862422
 15      -0.000000516047
 16      -0.000000813616
 17       0.011849597251
 18      -0.000000328208
 19       0.000000914124
 20       0.000000147544
 21       0.000000301083
 22       0.011868167070
 23       0.000000260856
 24       0.000000114335
 25      -0.000000030328
 26       0.000000064754
 27       0.000000405581
 28       0.407272027640
 29       0.000000188987
 30       0.000000128953
 31       0.276975804842
 32       0.000000062635
 33      -0.000000000997
 34       0.000000018167
 35       0.003473927605
 36      -0.000000068965
 37      -0.000000043948
 38      -0.019771723219
 39      -0.000000058490
 40      -0.000000080507
 41       0.011849351171
 42      -0.000000058125
 43      -0.000000077534
 44      -0.000000168488
 45       0.000000167483
 46       0.011866906282
 47       0.000000006112
 48      -0.000000020036
 Sym=     1a
 Ene= 9.62050808334986E-02
 Spin= Alpha
 Occup= 0.000000
  1       0.000000010692
  2      -0.000000098180
  3       0.000000348605
  4       0.402839349053
  5       0.000000000285
  6      -0.000000073102
  7       0.676620438187
  8      -0.000000065671
  9      -0.000000253695
 10      -0.000000026139
 11       0.004043888335
 12       0.000000066540
 13      -0.000000010830
 14      -0.022978027603
 15       0.000000122746
 16      -0.000000051814
 17       0.019982455222
 18       0.000000045576
 19      -0.000000146733
 20      -0.000000037360
 21      -0.000000301075
 22       0.020007729907
 23      -0.000000048536
 24      -0.000000030833
 25      -0.000000020207
 26       0.000000033176
 27       0.000000195580
 28      -0.402839350316
 29       0.000000020062
 30       0.000000016743
 31      -0.676620418745
 32       0.000000197283
 33       0.000000136412
 34       0.000000001170
 35       0.004043943624
 36      -0.000000005206
 37      -0.000000015495
 38      -0.022978014279
 39      -0.000000011341
 40      -0.000000145038
 41      -0.019982570921
 42      -0.000000017748
 43      -0.000000022976
 44      -0.000000095896
 45      -0.000000150844
 46      -0.020007973002
 47       0.000000005563
 48       0.000000000571
 Sym=     1a
 Ene= 1.56844829378312E-01
 Spin= Alpha
 Occup= 0.000000
  1      -0.081703481604
  2       0.160644550009
  3       1.520290029460
  4      -0.000000086198
  5      -0.148446806738
  6       0.026194982122
  7      -0.000000047314
  8      -0.540660354110
  9       0.095150411164
 10      -0.004776338480
 11      -0.000000004170
 12      -0.002214267543
 13      -0.003950274024
 14       0.000000002492
 15      -0.028921701002
 16      -1.077294028587
 17      -0.000000007079
 18      -0.005290013585
 19      -0.001376869146
 20      -0.028930112997
 21      -1.077748277643
 22      -0.000000017331
 23      -0.004506417308
 24       0.003105906711
 25      -0.081703579826
 26       0.160644073673
 27       1.520303130630
 28       0.000000065369
 29       0.148446915119
 30      -0.026194627341
 31       0.000000051800
 32       0.540656074307
 33      -0.095148908253
 34      -0.004776305513
 35      -0.000000000400
 36      -0.002214230187
 37      -0.003950340797
 38       0.000000002898
 39      -0.028921693285
 40      -1.077295133363
 41       0.000000009947
 42       0.005290186901
 43       0.001377065310
 44      -0.028930455268
 45      -1.077751541483
 46       0.000000013966
 47       0.004506481065
 48      -0.003105886256
 Sym=     1a
 Ene= 1.77758753574851E-01
 Spin= Alpha
 Occup= 0.000000
  1      -0.000040207517
  2       0.000042294202
  3       0.000349098256
  4      -0.000000013264
  5       0.043933211193
  6       0.249417374299
  7      -0.000000026434
  8       0.124451572773
  9       0.709308638098
 10      -0.005097229891
 11       0.000000006130
 12       0.016210403233
 13      -0.002939548429
 14      -0.000000000784
 15      -0.065692875916
 16      -1.100492686266
 17       0.000000000893
 18       0.002004734069
 19       0.002301538620
 20       0.065593740405
 21       1.099298139394
 22       0.000000032355
 23      -0.001111533299
 24       0.002850520706
 25       0.000040427221
 26      -0.000043271940
 27      -0.000350365398
 28      -0.000000024037
 29       0.043932853451
 30       0.249417971973
 31       0.000000013071
 32       0.124451393668
 33       0.709312587700
 34       0.005097112254
 35      -0.000000005154
 36      -0.016210255548
 37       0.002939488813
 38       0.000000002688
 39       0.065693776687
 40       1.100497960297
 41      -0.000000001365
 42       0.002004852270
 43       0.002302129586
 44      -0.065593559992
 45      -1.099301686712
 46      -0.000000013923
 47      -0.001111547814
 48       0.002850578972
 Sym=     1a
 Ene= 1.89655573403164E-01
 Spin= Alpha
 Occup= 0.000000
  1      -0.104597069440
  2       0.173405678969
  3       2.166996771259
  4      -0.000000022488
  5      -0.095742914438
  6       0.016830920087
  7       0.000000020567
  8      -0.184347316054
  9       0.032156377446
 10       0.006433953507
 11       0.000000002602
 12       0.002327347861
 13       0.001540997249
 14       0.000000000073
 15      -0.032759519171
 16      -1.205435148829
 17      -0.000000000203
 18       0.002554949789
 19       0.001332754647
 20      -0.032661140121
 21      -1.206628164421
 22      -0.000000008908
 23       0.001918112397
 24      -0.002116382254
 25       0.104596987837
 26      -0.173405935360
 27      -2.166993626787
 28       0.000000022963
 29      -0.095742661807
 30       0.016831343095
 31      -0.000000034101
 32      -0.184346468844
 33       0.032156528427
 34      -0.006434001885
 35       0.000000004452
 36      -0.002327096435
 37      -0.001541021377
 38       0.000000000539
 39       0.032759757207
 40       1.205433716372
 41       0.000000005992
 42       0.002555113743
 43       0.001333142675
 44       0.032660645799
 45       1.206625747122
 46       0.000000014646
 47       0.001918128059
 48      -0.002116329488
 Sym=     1a
 Ene= 2.56345300948559E-01
 Spin= Alpha
 Occup= 0.000000
  1      -0.000019304074
  2       0.000042216266
  3       0.000378838464
  4      -0.000000019155
  5       0.040903709834
  6       0.231742046658
  7      -0.000000004079
  8       0.265632807034
  9       1.508102467709
 10       0.005486305222
 11      -0.000000004235
 12      -0.017433601499
 13       0.003184045443
 14       0.000000000365
 15       0.014538705007
 16      -1.593149747691
 17      -0.000000002757
 18      -0.007370572971
 19       0.007340269965
 20      -0.014673266865
 21       1.592810728868
 22       0.000000005886
 23       0.009418889137
 24       0.004388184848
 25      -0.000019230969
 26       0.000043062594
 27       0.000356443614
 28       0.000000021505
 29      -0.040903228939
 30      -0.231741439419
 31      -0.000000022135
 32      -0.265621389576
 33      -1.508102819755
 34       0.005486315647
 35       0.000000000284
 36      -0.017433672506
 37       0.003184116386
 38       0.000000002445
 39       0.014539103878
 40      -1.593146317886
 41       0.000000002784
 42       0.007370390749
 43      -0.007340293359
 44      -0.014673609842
 45       1.592808725217
 46       0.000000001356
 47      -0.009419033028
 48      -0.004388151870
 Sym=     1a
 Ene= 4.10702154668434E-01
 Spin= Alpha
 Occup= 0.000000
  1      -0.063630835674
  2       0.118103467965
  3       5.026604851844
  4      -0.000000042965
  5       0.196931891967
  6      -0.034540360738
  7       0.000000032700
  8       3.328595715480
  9      -0.586814536696
 10       0.026267076197
 11      -0.000000002232
 12       0.011078532175
 13       0.015109874336
 14      -0.000000004802
 15       0.123980820328
 16       0.219135691317
 17      -0.000000001446
 18       0.013668885462
 19       0.010294401332
 20       0.124568763708
 21       0.218865109772
 22      -0.000000019276
 23       0.009260865756
 24      -0.014325247785
 25       0.063630853389
 26      -0.118104526650
 27      -5.026602823613
 28       0.000000026225
 29       0.196933058145
 30      -0.034538995433
 31      -0.000000054009
 32       3.328594847449
 33      -0.586815168729
 34      -0.026267243315
 35       0.000000003223
 36      -0.011078515906
 37      -0.015109770296
 38       0.000000002714
 39      -0.123981715150
 40      -0.219134376133
 41      -0.000000001978
 42       0.013668945789
 43       0.010294709842
 44      -0.124568292569
 45      -0.218867919233
 46       0.000000002829
 47       0.009260634516
 48      -0.014325389123
 Sym=     1a
 Ene= 4.83123700744462E-01
 Spin= Alpha
 Occup= 0.000000
  1      -0.089484353501
  2       0.772000975512
  3      -0.663120821196
  4      -0.000000022956
  5       0.382105067319
  6      -0.067254744678
  7       0.000000009316
  8      -0.748177888166
  9       0.130698189846
 10      -0.016592066084
 11      -0.000000000488
 12      -0.013425412461
 13      -0.045100918547
 14      -0.000000001823
 15      -0.034999297491
 16       0.176666897034
 17      -0.000000024604
 18      -0.034856661798
 19       0.001686890425
 20      -0.035243361929
 21       0.175431071676
 22       0.000000034473
 23      -0.033348955142
 24       0.010287164386
 25      -0.089484086406
 26       0.771999449311
 27      -0.663119550245
 28      -0.000000017589
 29      -0.382104745934
 30       0.067254839397
 31       0.000000001539
 32       0.748180512694
 33      -0.130698288025
 34      -0.016591961053
 35      -0.000000004897
 36      -0.013425718713
 37      -0.045100996737
 38       0.000000001012
 39      -0.034998844882
 40       0.176664875770
 41       0.000000003520
 42       0.034857279547
 43      -0.001687152181
 44      -0.035245141348
 45       0.175430908369
 46      -0.000000001815
 47       0.033348972028
 48      -0.010287188191
 Sym=     1a
 Ene= 5.16360901613864E-01
 Spin= Alpha
 Occup= 0.000000
  1      -0.000075013823
  2       0.000403649790
  3       0.000382612890
  4       0.000000081700
  5       0.005075340288
  6       0.028447997110
  7       0.000000045038
  8      -0.073832607313
  9      -0.424441296035
 10       0.029469153454
 11      -0.000000000349
 12      -0.093348868270
 13       0.017016983903
 14       0.000000009037
 15       0.582126560211
 16      -0.250911025940
 17       0.000000008569
 18      -0.052705788081
 19       0.007510559645
 20      -0.581586331002
 21       0.251134084299
 22      -0.000000062843
 23       0.052117081972
 24      -0.010971582162
 25       0.000076820555
 26      -0.000419442023
 27      -0.000333276723
 28       0.000000061256
 29       0.005071344723
 30       0.028447438507
 31      -0.000000009999
 32      -0.073808438163
 33      -0.424443776206
 34      -0.029470673886
 35       0.000000013352
 36       0.093348265267
 37      -0.017016019083
 38      -0.000000009497
 39      -0.582142160513
 40       0.250901047298
 41      -0.000000010353
 42      -0.052705485996
 43       0.007509716938
 44       0.581571082159
 45      -0.251145957504
 46       0.000000020353
 47       0.052117728305
 48      -0.010972072079
 Sym=     1a
 Ene= 5.27346856568468E-01
 Spin= Alpha
 Occup= 0.000000
  1       0.070681069756
  2      -0.615079257100
  3       1.686709733451
  4      -0.000000216979
  5       0.107769320154
  6      -0.019474347239
  7       0.000000140544
  8      -0.730807060275
  9       0.130626098017
 10      -0.059619728586
 11      -0.000000007611
 12      -0.012485623669
 13       0.034671396715
 14      -0.000000011949
 15      -0.494548767826
 16      -0.367614454979
 17       0.000000021929
 18      -0.019325041416
 19      -0.011936854993
 20      -0.494288867131
 21      -0.366223224671
 22      -0.000000056174
 23      -0.013960528954
 24       0.017852119541
 25       0.070681008274
 26      -0.615079522806
 27       1.686715528463
 28      -0.000000046195
 29      -0.107769931313
 30       0.019472980350
 31      -0.000000079867
 32       0.730806944317
 33      -0.130612249169
 34      -0.059619041961
 35      -0.000000008823
 36      -0.012488271739
 37       0.034671964307
 38       0.000000014440
 39      -0.494531949524
 40      -0.367620734023
 41       0.000000020896
 42       0.019326379139
 43       0.011937148270
 44      -0.494307419190
 45      -0.366216602896
 46       0.000000000365
 47       0.013958901854
 48      -0.017851773192
 Sym=     1a
 Ene= 5.86413156334382E-01
 Spin= Alpha
 Occup= 0.000000
  1       0.000000011104
  2      -0.000000077083
  3       0.000000180174
  4       0.692536453789
  5       0.000000016428
  6      -0.000000030584
  7      -0.622463140352
  8      -0.000000117009
  9       0.000000089610
 10      -0.000000006733
 11      -0.009151278740
 12       0.000000005198
 13      -0.000000005982
 14       0.052071264984
 15      -0.000000060378
 16      -0.000000081064
 17       0.009019349609
 18       0.000000001106
 19      -0.000000001892
 20      -0.000000024123
 21      -0.000000045802
 22       0.008981974614
 23      -0.000000002254
 24      -0.000000000389
 25       0.000000001862
 26      -0.000000045444
 27       0.000000217641
 28       0.692536724867
 29      -0.000000017983
 30       0.000000022185
 31      -0.622463536820
 32       0.000000069594
 33      -0.000000039281
 34      -0.000000008005
 35       0.009151257119
 36      -0.000000002114
 37       0.000000008717
 38      -0.052071254862
 39      -0.000000042703
 40      -0.000000052719
 41       0.009019357942
 42       0.000000013708
 43       0.000000009027
 44      -0.000000074457
 45      -0.000000026272
 46       0.008982005560
 47      -0.000000004212
 48      -0.000000004784
 Sym=     1a
 Ene= 6.36869759973526E-01
 Spin= Alpha
 Occup= 0.000000
  1       0.040899648019
  2       0.253667241024
  3      -3.215318180234
  4      -0.000000066347
  5      -0.145990054287
  6       0.025927103455
  7      -0.000000023947
  8      -0.677095090188
  9       0.119215866048
 10       0.055895902995
 11      -0.000000008105
 12       0.007050313480
 13      -0.058462521208
 14       0.000000000706
 15       0.629452037606
 16       0.045448064868
 17       0.000000001681
 18       0.007570241899
 19       0.042504150534
 20       0.629943392374
 21       0.044770946709
 22      -0.000000002220
 23      -0.007505648620
 24      -0.042553072271
 25      -0.040899668967
 26      -0.253667040864
 27       3.215317385684
 28       0.000000000310
 29      -0.145989585799
 30       0.025926007921
 31       0.000000015703
 32      -0.677095606149
 33       0.119218706672
 34      -0.055895623859
 35       0.000000001461
 36      -0.007050407983
 37       0.058462487808
 38       0.000000000149
 39      -0.629452320953
 40      -0.045447351824
 41      -0.000000020716
 42       0.007570020163
 43       0.042503466602
 44      -0.629941231741
 45      -0.044771679417
 46      -0.000000003717
 47      -0.007505544792
 48      -0.042552915037
 Sym=     1a
 Ene= 6.76287461845053E-01
 Spin= Alpha
 Occup= 0.000000
  1      -0.000000080889
  2       0.000000460228
  3      -0.000001102227
  4       0.757654860268
  5      -0.000000119485
  6       0.000000006243
  7      -1.137951817055
  8       0.000000100963
  9       0.000000205781
 10      -0.000000023509
 11       0.004018712893
 12      -0.000000024317
 13       0.000000022347
 14      -0.022547141539
 15      -0.000000206163
 16       0.000000263640
 17       0.020330354631
 18       0.000000002040
 19      -0.000000006265
 20      -0.000000127601
 21       0.000000506288
 22       0.020276816410
 23       0.000000029206
 24       0.000000049569
 25       0.000000016532
 26      -0.000000161787
 27       0.000000658964
 28      -0.757654665015
 29       0.000000038100
 30      -0.000000074685
 31       1.137951557400
 32      -0.000000045295
 33      -0.000000019298
 34      -0.000000029064
 35       0.004018737652
 36       0.000000006664
 37       0.000000008993
 38      -0.022547160664
 39      -0.000000168839
 40      -0.000000038805
 41      -0.020330319561
 42       0.000000016247
 43       0.000000034243
 44      -0.000000054706
 45      -0.000000106343
 46      -0.020276763087
 47       0.000000013657
 48      -0.000000009558
 Sym=     1a
 Ene= 7.30359092443362E-01
 Spin= Alpha
 Occup= 0.000000
  1      -0.161696143095
  2       0.906832499438
  3      -1.919360377345
  4      -0.000000166173
  5      -0.407255948991
  6       0.072977325793
  7       0.000000247726
  8       0.615891552033
  9      -0.111577194914
 10      -0.073550919787
 11      -0.000000018062
 12      -0.017270186734
 13       0.031932301986
 14       0.000000000861
 15      -0.414665348007
 16       0.999397337596
 17      -0.000000015649
 18       0.010429315277
 19      -0.105598939513
 20      -0.413891359500
 21       0.995572695356
 22       0.000000029664
 23       0.045534866535
 24       0.095550910464
 25      -0.161698256828
 26       0.906846867055
 27      -1.919407499636
 28       0.000000165427
 29       0.407257729117
 30      -0.072979461888
 31      -0.000000267600
 32      -0.615892114505
 33       0.111581224461
 34      -0.073551445193
 35      -0.000000006239
 36      -0.017269926116
 37       0.031932639397
 38       0.000000004642
 39      -0.414668058980
 40       0.999415094176
 41       0.000000010154
 42      -0.010429485020
 43       0.105600718526
 44      -0.413893551536
 45       0.995583226846
 46       0.000000011613
 47      -0.045535331383
 48      -0.095551352670
 Sym=     1a
 Ene= 7.49715041739382E-01
 Spin= Alpha
 Occup= 0.000000
  1       0.211659180618
  2      -1.419832243851
  3       5.001763269881
  4       0.000000107716
  5       0.233102894148
  6      -0.047217855296
  7      -0.000000243355
  8       0.194465316219
  9      -0.022946961574
 10       0.039033251071
 11      -0.000000010117
 12       0.005821555463
 13      -0.029778088381
 14      -0.000000008051
 15       0.191669395874
 16      -1.322336414890
 17      -0.000000024667
 18      -0.031465664855
 19       0.088266528452
 20       0.188989614599