monomer optimized                                                       
SP        RwB97XD                                                     6-31G(d)            
Number of atoms                            I                6
Info1-9                                    I   N=           9
          15          15           0           0           0         111
           1          18        -802
Full Title                                 C   N=           2
monomer optimized       
Route                                      C   N=           4
# SP wB97XD/6-31G* NoSymmetry IOp(3/32=2,3/33=1)
Charge                                     I                0
Multiplicity                               I                1
Number of electrons                        I               16
Number of alpha electrons                  I                8
Number of beta electrons                   I                8
Number of basis functions                  I               38
Number of independent functions            I               38
Number of point charges in /Mol/           I                0
Number of translation vectors              I                0
Atomic numbers                             I   N=           6
           6           1           1           6           1           1
Nuclear charges                            R   N=           6
  6.00000000E+00  1.00000000E+00  1.00000000E+00  6.00000000E+00  1.00000000E+00
  1.00000000E+00
Current cartesian coordinates              R   N=          18
  0.00000000E+00 -8.57675109E-01  7.02088727E+00  0.00000000E+00 -1.61766583E+00
  8.92892775E+00  0.00000000E+00 -2.22442107E+00  5.48784788E+00  0.00000000E+00
  1.61356556E+00  6.58514088E+00  0.00000000E+00  2.37355629E+00  4.67710041E+00
  0.00000000E+00  2.98031152E+00  8.11818028E+00
Number of symbols in /Mol/                 I                0
Force Field                                I                0
Atom Types                                 C   N=           6
                                                            
            
Int Atom Types                             I   N=           6
           0           0           0           0           0           0
MM charges                                 R   N=           6
  0.00000000E+00  0.00000000E+00  0.00000000E+00  0.00000000E+00  0.00000000E+00
  0.00000000E+00
Integer atomic weights                     I   N=           6
          12           1           1          12           1           1
Real atomic weights                        R   N=           6
  1.20000000E+01  1.00782504E+00  1.00782504E+00  1.20000000E+01  1.00782504E+00
  1.00782504E+00
Atom fragment info                         I   N=           6
           0           0           0           0           0           0
Atom residue num                           I   N=           6
           0           0           0           0           0           0
Nuclear spins                              I   N=           6
           0           1           1           0           1           1
Nuclear ZEff                               R   N=           6
 -3.60000000E+00 -1.00000000E+00 -1.00000000E+00 -3.60000000E+00 -1.00000000E+00
 -1.00000000E+00
Nuclear ZNuc                               R   N=           6
  6.00000000E+00  1.00000000E+00  1.00000000E+00  6.00000000E+00  1.00000000E+00
  1.00000000E+00
Nuclear QMom                               R   N=           6
  0.00000000E+00  0.00000000E+00  0.00000000E+00  0.00000000E+00  0.00000000E+00
  0.00000000E+00
Nuclear GFac                               R   N=           6
  0.00000000E+00  2.79284600E+00  2.79284600E+00  0.00000000E+00  2.79284600E+00
  2.79284600E+00
MicOpt                                     I   N=           6
          -1          -1          -1          -1          -1          -1
Number of residues                         I                0
Number of secondary structures             I                0
Number of contracted shells                I               16
Number of primitive shells                 I               38
Pure/Cartesian d shells                    I                1
Pure/Cartesian f shells                    I                0
Highest angular momentum                   I                2
Largest degree of contraction              I                6
Shell types                                I   N=          16
           0          -1          -1           2           0           0
           0           0           0          -1          -1           2
           0           0           0           0
Number of primitives per shell             I   N=          16
           6           3           1           1           3           1
           3           1           6           3           1           1
           3           1           3           1
Shell to atom map                          I   N=          16
           1           1           1           1           2           2
           3           3           4           4           4           4
           5           5           6           6
Primitive exponents                        R   N=          38
  3.04752488E+03  4.57369518E+02  1.03948685E+02  2.92101553E+01  9.28666296E+00
  3.16392696E+00  7.86827235E+00  1.88128854E+00  5.44249258E-01  1.68714478E-01
  8.00000000E-01  1.87311370E+01  2.82539436E+00  6.40121692E-01  1.61277759E-01
  1.87311370E+01  2.82539436E+00  6.40121692E-01  1.61277759E-01  3.04752488E+03
  4.57369518E+02  1.03948685E+02  2.92101553E+01  9.28666296E+00  3.16392696E+00
  7.86827235E+00  1.88128854E+00  5.44249258E-01  1.68714478E-01  8.00000000E-01
  1.87311370E+01  2.82539436E+00  6.40121692E-01  1.61277759E-01  1.87311370E+01
  2.82539436E+00  6.40121692E-01  1.61277759E-01
Contraction coefficients                   R   N=          38
  1.83473713E-03  1.40373228E-02  6.88426223E-02  2.32184443E-01  4.67941348E-01
  3.62311985E-01 -1.19332420E-01 -1.60854152E-01  1.14345644E+00  1.00000000E+00
  1.00000000E+00  3.34946043E-02  2.34726953E-01  8.13757326E-01  1.00000000E+00
  3.34946043E-02  2.34726953E-01  8.13757326E-01  1.00000000E+00  1.83473713E-03
  1.40373228E-02  6.88426223E-02  2.32184443E-01  4.67941348E-01  3.62311985E-01
 -1.19332420E-01 -1.60854152E-01  1.14345644E+00  1.00000000E+00  1.00000000E+00
  3.34946043E-02  2.34726953E-01  8.13757326E-01  1.00000000E+00  3.34946043E-02
  2.34726953E-01  8.13757326E-01  1.00000000E+00
P(S=P) Contraction coefficients            R   N=          38
  0.00000000E+00  0.00000000E+00  0.00000000E+00  0.00000000E+00  0.00000000E+00
  0.00000000E+00  6.89990666E-02  3.16423961E-01  7.44308291E-01  1.00000000E+00
  0.00000000E+00  0.00000000E+00  0.00000000E+00  0.00000000E+00  0.00000000E+00
  0.00000000E+00  0.00000000E+00  0.00000000E+00  0.00000000E+00  0.00000000E+00
  0.00000000E+00  0.00000000E+00  0.00000000E+00  0.00000000E+00  0.00000000E+00
  6.89990666E-02  3.16423961E-01  7.44308291E-01  1.00000000E+00  0.00000000E+00
  0.00000000E+00  0.00000000E+00  0.00000000E+00  0.00000000E+00  0.00000000E+00
  0.00000000E+00  0.00000000E+00  0.00000000E+00
Coordinates of each shell                  R   N=          48
  0.00000000E+00 -8.57675109E-01  7.02088727E+00  0.00000000E+00 -8.57675109E-01
  7.02088727E+00  0.00000000E+00 -8.57675109E-01  7.02088727E+00  0.00000000E+00
 -8.57675109E-01  7.02088727E+00  0.00000000E+00 -1.61766583E+00  8.92892775E+00
  0.00000000E+00 -1.61766583E+00  8.92892775E+00  0.00000000E+00 -2.22442107E+00
  5.48784788E+00  0.00000000E+00 -2.22442107E+00  5.48784788E+00  0.00000000E+00
  1.61356556E+00  6.58514088E+00  0.00000000E+00  1.61356556E+00  6.58514088E+00
  0.00000000E+00  1.61356556E+00  6.58514088E+00  0.00000000E+00  1.61356556E+00
  6.58514088E+00  0.00000000E+00  2.37355629E+00  4.67710041E+00  0.00000000E+00
  2.37355629E+00  4.67710041E+00  0.00000000E+00  2.98031152E+00  8.11818028E+00
  0.00000000E+00  2.98031152E+00  8.11818028E+00
Num ILSW                                   I              100
ILSW                                       I   N=         100
           0           1           0           0           2           0
           0           0           0           0        4639          -1
           4           0           0           0           0           0
           0           0           1           0           0           0
           1           1           0           0           0           0
           0           0      100000           0          -1           0
           0           0           0           0           0           0
           0           0           0           1           0           0
           0 -2000000000           1           0           0           0
           0           0         121          52           0           0
           0           0          58           0           0           0
           0           0           0           0           0           1
           0           0           0           0           0           0
           0           0           0           0           0           0
           0           0           0           0           0           0
           0           0           0           0           0           0
           0           0           0           0
Num RLSW                                   I               52
RLSW                                       R   N=          52
  1.00000000E+00  1.00000000E+00  1.00000000E+00  1.00000000E+00  1.00000000E+00
  0.00000000E+00  2.00000000E-01  2.22036000E-01  0.00000000E+00  7.77964000E-01
  0.00000000E+00  2.00000000E-01  0.00000000E+00  0.00000000E+00  1.00000000E+00
  0.00000000E+00  0.00000000E+00  1.00000000E+00  0.00000000E+00  0.00000000E+00
  0.00000000E+00  0.00000000E+00  1.00000000E+00  0.00000000E+00  0.00000000E+00
  0.00000000E+00  0.00000000E+00  1.00000000E+00  0.00000000E+00  0.00000000E+00
  0.00000000E+00  0.00000000E+00  1.00000000E+00  0.00000000E+00  0.00000000E+00
  0.00000000E+00  0.00000000E+00  0.00000000E+00  1.00000000E+00  1.00000000E+00
  0.00000000E+00  1.00000000E+00  0.00000000E+00  0.00000000E+00  0.00000000E+00
  0.00000000E+00  0.00000000E+00  0.00000000E+00  0.00000000E+00  0.00000000E+00
  0.00000000E+00  0.00000000E+00
MxBond                                     I                3
NBond                                      I   N=           6
           3           1           1           3           1           1
IBond                                      I   N=          18
           2           3           4           1           0           0
           1           0           0           1           5           6
           4           0           0           4           0           0
RBond                                      R   N=          18
  1.00000000E+00  1.00000000E+00  2.00000000E+00  1.00000000E+00  0.00000000E+00
  0.00000000E+00  1.00000000E+00  0.00000000E+00  0.00000000E+00  2.00000000E+00
  1.00000000E+00  1.00000000E+00  1.00000000E+00  0.00000000E+00  0.00000000E+00
  1.00000000E+00  0.00000000E+00  0.00000000E+00
Virial Ratio                               R      2.010034197685727E+00
SCF Energy                                 R     -7.855588663657190E+01
Total Energy                               R     -7.855588663657190E+01
RMS Density                                R      1.271117616718494E-09
Job Status                                 I                1
Nuclear derivative order                   I                0
External E-field                           R   N=          35
  0.00000000E+00  0.00000000E+00  0.00000000E+00  0.00000000E+00  0.00000000E+00
  0.00000000E+00  0.00000000E+00  0.00000000E+00  0.00000000E+00  0.00000000E+00
  0.00000000E+00  0.00000000E+00  0.00000000E+00  0.00000000E+00  0.00000000E+00
  0.00000000E+00  0.00000000E+00  0.00000000E+00  0.00000000E+00  0.00000000E+00
  0.00000000E+00  0.00000000E+00  0.00000000E+00  0.00000000E+00  0.00000000E+00
  0.00000000E+00  0.00000000E+00  0.00000000E+00  0.00000000E+00  0.00000000E+00
  0.00000000E+00  0.00000000E+00  0.00000000E+00  0.00000000E+00  0.00000000E+00
IOpCl                                      I                0
IROHF                                      I                0
Alpha Orbital Energies                     R   N=          38
 -1.02942772E+01 -1.02933377E+01 -8.54322734E-01 -6.68667064E-01 -5.52546880E-01
 -4.99714540E-01 -4.33314736E-01 -3.48202158E-01  9.65241030E-02  2.08246519E-01
  2.24984507E-01  2.45622943E-01  3.36342474E-01  4.14250329E-01  5.65122871E-01
  6.38490582E-01  6.57884283E-01  7.32174617E-01  7.39990339E-01  7.95540824E-01
  9.45120653E-01  9.73099595E-01  1.03188329E+00  1.03726195E+00  1.19528621E+00
  1.31310148E+00  1.54912349E+00  1.62411987E+00  1.91650716E+00  1.97511925E+00
  2.08295660E+00  2.17988979E+00  2.37776309E+00  2.47571129E+00  2.79462306E+00
  2.80049266E+00  4.20348606E+00  4.35027118E+00
Alpha MO coefficients                      R   N=        1444
  7.02059108E-01  3.23369495E-02 -2.61185668E-16 -2.71916556E-04  4.84695138E-05
 -6.20734583E-03 -3.68230654E-17  7.20648669E-04 -1.27450724E-04 -6.19803567E-03
 -5.85062950E-03 -5.98207086E-03 -3.13435896E-16  7.85729100E-17 -2.78252137E-05
 -3.12438674E-04  1.64617402E-03 -3.12093952E-04  1.64570796E-03  7.02059108E-01
  3.23369495E-02 -1.42755578E-16  2.71916556E-04 -4.84695138E-05 -6.20734583E-03
 -1.22964722E-16 -7.20648669E-04  1.27450724E-04 -6.19803567E-03 -5.85062950E-03
 -5.98207086E-03 -2.83059799E-16 -1.05919397E-16 -2.78252137E-05 -3.12438674E-04
  1.64617402E-03 -3.12093952E-04  1.64570796E-03  7.02438255E-01  3.31693255E-02
  3.65532231E-17  4.38457918E-04 -7.67528221E-05 -1.30475891E-02  2.24653676E-16
 -2.10628811E-03  3.71107816E-04 -6.01979415E-03 -5.29673335E-03 -5.68181394E-03
  6.75212719E-17 -2.52436349E-17 -8.09410705E-05 -1.91828316E-04  1.65973530E-03
 -1.91565615E-04  1.65929430E-03 -7.02438255E-01 -3.31693255E-02  8.61842022E-17
  4.38457918E-04 -7.67528221E-05  1.30475891E-02 -4.89477605E-18 -2.10628811E-03
  3.71107816E-04  6.01979415E-03  5.29673335E-03  5.68181394E-03 -7.68352081E-17
 -5.83821120E-17  8.09410705E-05  1.91828316E-04 -1.65973530E-03  1.91565615E-04
 -1.65929430E-03 -1.59769306E-01  3.02480460E-01 -3.27659695E-16  9.80273062E-02
 -1.72656476E-02  2.34623575E-01  5.90026304E-17  4.89916532E-03 -8.59091613E-04
 -1.37710555E-02  9.54651772E-03  2.68240999E-03  5.80888942E-17  3.09998295E-17
 -1.43739108E-03  8.32091818E-02  1.79243306E-02  8.32138977E-02  1.79187518E-02
 -1.59769306E-01  3.02480460E-01 -5.48884427E-17 -9.80273062E-02  1.72656476E-02
  2.34623575E-01 -1.45647145E-16 -4.89916532E-03  8.59091613E-04 -1.37710555E-02
  9.54651772E-03  2.68240999E-03 -1.62171372E-17  2.34469650E-16 -1.43739108E-03
  8.32091818E-02  1.79243306E-02  8.32138977E-02  1.79187518E-02 -1.22419128E-01
  2.41131549E-01 -1.28614986E-16 -1.67838400E-01  2.96137850E-02  2.36024378E-01
 -1.76195415E-16 -6.89821557E-02  1.21659146E-02 -9.20619428E-03 -4.00720500E-03
  1.49108863E-02 -7.13425008E-17  8.49281693E-17  3.97466505E-03  1.45252442E-01
  6.50564977E-02  1.45259531E-01  6.50353257E-02  1.22419128E-01 -2.41131549E-01
 -9.77342151E-17 -1.67838400E-01  2.96137850E-02 -2.36024378E-01 -8.76830191E-17
 -6.89821557E-02  1.21659146E-02  9.20619428E-03  4.00720500E-03 -1.49108863E-02
 -1.40582037E-18 -1.18806490E-16 -3.97466505E-03 -1.45252442E-01 -6.50564977E-02
 -1.45259531E-01 -6.50353257E-02  5.63764532E-07  5.13055472E-06 -2.23456372E-17
  5.71553055E-02  3.24071691E-01  1.68071505E-05 -2.88253782E-16  2.21093995E-02
  1.25329209E-01  3.29845749E-06 -1.74330551E-03  1.73199285E-03  1.70794133E-16
  1.10614429E-16 -5.52858726E-03  1.55436161E-01  1.05905089E-01 -1.55469025E-01
 -1.05905745E-01 -5.63764533E-07 -5.13055472E-06 -3.47087644E-16  5.71553055E-02
  3.24071691E-01 -1.68071505E-05  1.05503701E-16  2.21093995E-02  1.25329209E-01
 -3.29845749E-06  1.74330551E-03 -1.73199285E-03 -4.30357904E-17  1.76226710E-16
  5.52858726E-03 -1.55436161E-01 -1.05905089E-01  1.55469025E-01  1.05905745E-01
 -1.43364727E-02  3.29868394E-02  7.14135483E-16  4.07465938E-01 -7.18104106E-02
 -9.12347298E-03  1.37881402E-15  1.46219809E-01 -2.57925519E-02 -4.20236490E-04
  4.96241030E-03 -1.79233528E-02 -4.86984544E-16  1.77393181E-18 -4.80504872E-03
 -1.24411224E-01 -1.01229017E-01 -1.24458788E-01 -1.01256640E-01 -1.43364727E-02
  3.29868394E-02  9.03343852E-16 -4.07465938E-01  7.18104106E-02 -9.12347298E-03
  1.51115307E-15 -1.46219809E-01  2.57925519E-02 -4.20236490E-04  4.96241030E-03
 -1.79233528E-02 -4.78352497E-16  6.85954726E-17 -4.80504872E-03 -1.24411224E-01
 -1.01229017E-01 -1.24458788E-01 -1.01256640E-01  2.60773358E-06  2.80672697E-07
 -1.12489076E-15  5.35780979E-02  3.04080535E-01  1.38832789E-06  4.56802791E-16
  2.64161621E-02  1.49946525E-01  6.21059929E-06 -9.00239371E-03  8.99283682E-03
 -1.78040535E-16  5.11089565E-17 -2.85584810E-02  1.95929150E-01  1.74907217E-01
 -1.95936388E-01 -1.74884761E-01  2.60773358E-06  2.80672696E-07 -1.03479859E-15
 -5.35780979E-02 -3.04080535E-01  1.38832790E-06 -1.08629098E-16 -2.64161621E-02
 -1.49946525E-01  6.21059929E-06 -9.00239371E-03  8.99283682E-03  4.39030133E-17
 -1.90851210E-17 -2.85584810E-02  1.95929150E-01  1.74907217E-01 -1.95936388E-01
 -1.74884761E-01  6.61371771E-18  7.50832195E-17  3.99210289E-01 -8.43542468E-16
  7.61487478E-16 -2.18365494E-16  2.85948443E-01 -8.67421922E-16  2.19905744E-15
  2.06044454E-16  2.25526376E-16  3.67911821E-16  1.69745006E-02 -2.98064263E-03
 -8.82373493E-17  7.94591485E-16 -1.70290761E-15  1.40215313E-16  1.17659947E-15
  7.29699902E-17 -4.08216554E-16  3.99210289E-01  1.12610511E-15 -6.59966500E-16
  1.52682579E-15  2.85948443E-01  2.25750533E-16 -1.38883734E-15  9.44151595E-17
  2.15376252E-16  3.59007600E-16 -1.69745006E-02  2.98064263E-03  4.31033040E-17
  7.31341372E-16 -1.47632954E-15  1.94946280E-16  3.09160162E-16 -1.99982512E-17
 -2.54805475E-16  4.08780581E-01 -1.62505211E-16 -4.64821175E-16  8.11027254E-16
  6.47744204E-01  4.77378349E-16 -3.46268582E-15 -3.14500820E-17  3.81977016E-18
 -7.67011568E-17 -2.56579732E-02  4.54111794E-03  4.75157068E-17 -2.01170830E-16
  3.39682126E-15 -5.19652767E-17 -2.50384322E-15  1.48645496E-17  1.59397637E-16
 -4.08780581E-01  1.60952460E-16  1.47342453E-16 -1.50302512E-15 -6.47744204E-01
  8.54682179E-16  3.07848403E-15 -2.35585944E-17 -6.06087031E-17 -8.24854465E-17
 -2.56579732E-02  4.54111794E-03  4.80516832E-17 -1.66352375E-16  2.74462247E-15
  1.22873945E-17 -2.23676575E-15 -8.11337584E-02  1.26707510E-01 -2.14316871E-16
 -1.72246204E-01  3.04059656E-02  1.38087389E+00 -1.82597751E-16 -5.91863372E-01
  1.04469858E-01  2.11490671E-05  6.20488305E-03 -1.33212961E-02  1.39471580E-17
 -2.07311885E-16 -4.11084413E-03 -4.46666705E-02 -9.75255024E-01 -4.46495589E-02
 -9.75050182E-01 -8.11337584E-02  1.26707510E-01  8.34081751E-17  1.72246204E-01
 -3.04059656E-02  1.38087389E+00  2.08866489E-16  5.91863372E-01 -1.04469858E-01
  2.11490671E-05  6.20488305E-03 -1.33212961E-02 -3.32822116E-16  2.70565042E-16
 -4.11084413E-03 -4.46666705E-02 -9.75255024E-01 -4.46495589E-02 -9.75050182E-01
  6.84409523E-05 -1.15081128E-04 -5.60536249E-17 -5.16962637E-02 -2.93465486E-01
 -1.06952005E-03 -9.58970767E-16 -1.25227465E-01 -7.10269503E-01  6.95669105E-06
 -8.63737799E-03  8.64979430E-03  6.26958382E-17  1.17902908E-16 -2.74314917E-02
  8.18668693E-02  1.00255238E+00 -8.17916646E-02 -1.00145751E+00 -6.84409522E-05
  1.15081128E-04  5.27299450E-17 -5.16962637E-02 -2.93465486E-01  1.06952005E-03
  7.85445415E-16 -1.25227465E-01 -7.10269503E-01 -6.95669106E-06  8.63737799E-03
 -8.64979430E-03 -2.84245922E-16  1.84266705E-16  2.74314917E-02 -8.18668693E-02
 -1.00255238E+00  8.17916646E-02  1.00145751E+00 -1.13665740E-01  1.59080824E-01
  2.03719832E-16 -1.13012019E-01  1.97667981E-02  1.82613029E+00 -7.71982872E-17
 -1.02881771E-01  1.77013790E-02 -5.60833615E-03 -6.12234270E-03 -3.45265592E-04
 -4.07204573E-17 -1.12773947E-16  1.19127549E-03 -5.54975279E-02 -9.94995431E-01
 -5.55771645E-02 -9.96165774E-01  1.13665740E-01 -1.59080824E-01 -2.00772083E-16
 -1.13012019E-01  1.97667981E-02 -1.82613029E+00  5.75663502E-17 -1.02881771E-01
  1.77013790E-02  5.60833615E-03  6.12234270E-03  3.45265592E-04  9.44768459E-17
 -2.11725549E-16 -1.19127549E-03  5.54975279E-02  9.94995431E-01  5.55771645E-02
  9.96165774E-01  6.37304887E-06  3.44196522E-06  1.77177943E-15  5.61717154E-02
  3.18533703E-01 -1.28135179E-04  2.34010527E-15  2.91446643E-01  1.65262539E+00
  2.39995163E-06 -5.28690839E-03  5.27812611E-03  2.42857015E-17 -3.52249857E-16
 -1.67681384E-02  1.47842367E-02 -1.49420471E+00 -1.48093299E-02  1.49439604E+00
  6.37304891E-06  3.44196523E-06 -9.97604722E-16 -5.61717154E-02 -3.18533703E-01
 -1.28135180E-04 -2.52648779E-15 -2.91446643E-01 -1.65262539E+00  2.39995162E-06
 -5.28690839E-03  5.27812611E-03 -3.77253772E-16 -2.12457174E-16 -1.67681384E-02
  1.47842367E-02 -1.49420471E+00 -1.48093299E-02  1.49439604E+00 -7.07176920E-02
  2.99392591E-02 -1.51262818E-15  1.90391130E-01 -3.35785153E-02  2.99464653E+00
  5.85374791E-16  2.80990545E+00 -4.95486119E-01 -8.92155486E-03 -1.91160101E-02
  2.68868563E-02  5.93217048E-17 -1.92153791E-17  9.68012806E-03  8.40624689E-02
  5.48771903E-01  8.40812486E-02  5.48684866E-01  7.07176920E-02 -2.99392591E-02
 -6.89013523E-16  1.90391130E-01 -3.35785153E-02 -2.99464653E+00  1.32177080E-15
  2.80990545E+00 -4.95486119E-01  8.92155486E-03  1.91160101E-02 -2.68868563E-02
  7.53583069E-17 -1.91633758E-16 -9.68012806E-03 -8.40624689E-02 -5.48771903E-01
 -8.40812486E-02 -5.48684866E-01 -2.13149128E-02 -1.99344984E-01 -1.18635927E-15
 -5.52843666E-01  9.74767622E-02 -2.48185732E-01  9.29423575E-16  1.03292175E+00
 -1.82068353E-01  4.49259938E-03 -7.42351418E-02  3.26926921E-02 -4.88705598E-16
 -2.33788704E-16  2.24620532E-02  6.69339642E-02  1.05137234E-01  6.69411261E-02
  1.05197815E-01 -2.13149128E-02 -1.99344984E-01  3.49465143E-16  5.52843666E-01
 -9.74767622E-02 -2.48185732E-01  5.09611080E-16 -1.03292175E+00  1.82068353E-01
  4.49259938E-03 -7.42351418E-02  3.26926921E-02 -3.84707352E-16 -5.76099111E-16
  2.24620532E-02  6.69339642E-02  1.05137234E-01  6.69411261E-02  1.05197815E-01
 -1.75969241E-16  6.30086833E-15  7.30113075E-01 -3.41655354E-16 -2.27183134E-15
 -9.43966848E-15 -6.49079616E-01  6.27711091E-15  1.34045098E-15  4.51358995E-16
  1.53156813E-16  5.11379894E-16  5.61594095E-02 -9.88733956E-03  1.50900623E-16
 -2.43781992E-15  4.98098564E-15  1.89141142E-15  4.36061535E-15  1.18388851E-16
  3.36683550E-15  7.30113075E-01  2.66378430E-15 -3.55176655E-15 -9.03746685E-15
 -6.49079616E-01  5.13751474E-16  8.69548955E-15 -3.09994346E-16  2.51910046E-16
 -3.88167455E-16 -5.61594095E-02  9.88733956E-03 -6.40446478E-16  2.35382585E-15
  4.53993474E-15 -3.54363251E-15  1.42548489E-16  1.58552866E-05  3.10257267E-06
 -8.39221679E-15 -7.25632243E-02 -4.11210024E-01 -2.31551121E-04  8.59093065E-15
  1.34522054E-01  7.63505337E-01 -2.40211271E-05  2.78442022E-02 -2.78019963E-02
 -1.52982782E-16  9.77865519E-17  8.82935285E-02 -3.80239007E-01 -6.56226627E-02
  3.80389509E-01  6.54917285E-02 -1.58552866E-05 -3.10257266E-06 -1.14686090E-15
 -7.25632243E-02 -4.11210024E-01  2.31551121E-04 -2.65042710E-17  1.34522054E-01
  7.63505337E-01  2.40211271E-05 -2.78442022E-02  2.78019963E-02  5.75504099E-16
  4.40455672E-16 -8.82935285E-02  3.80239007E-01  6.56226627E-02 -3.80389509E-01
 -6.54917285E-02  1.60578786E-15  3.09435493E-14 -7.89480505E-01  2.28134216E-16
 -5.67832796E-16 -5.93272943E-14  1.13314721E+00  1.31502304E-14 -1.78309405E-15
 -1.97422203E-15  3.42179671E-15  6.11083649E-15  2.16236933E-02 -3.83569042E-03
  3.85148127E-16  1.86011495E-14  6.77510057E-15  1.46889704E-14  9.49862205E-15
  1.64477720E-15  2.78021197E-14  7.89480505E-01 -2.49752640E-15  2.27460000E-15
 -5.34917258E-14 -1.13314721E+00 -1.31039539E-14 -4.40184365E-15 -1.55518047E-15
  3.78011622E-15  6.28715627E-15  2.16236933E-02 -3.83569042E-03  1.27370792E-15
  1.37506691E-14  5.70043776E-15  2.00044992E-14  7.82950703E-15 -3.72401659E-02
 -7.24195693E-01 -3.03223092E-14 -2.17045157E-02  3.81874562E-03  1.37827094E+00
  4.48176585E-14 -3.41620476E-01  6.00673913E-02  5.55516143E-02 -8.16946540E-02
 -1.50334832E-01  1.06241809E-15 -2.80691417E-16 -1.44513050E-02 -4.18826545E-01
 -1.72686692E-01 -4.18876135E-01 -1.72809076E-01 -3.72401659E-02 -7.24195693E-01
  3.36219878E-14  2.17045157E-02 -3.81874562E-03  1.37827094E+00 -4.75924367E-14
  3.41620476E-01 -6.00673913E-02  5.55516143E-02 -8.16946540E-02 -1.50334832E-01
  5.33273745E-17  2.35392687E-16 -1.44513050E-02 -4.18826545E-01 -1.72686692E-01
 -4.18876135E-01 -1.72809076E-01  8.78435317E-02 -1.37568116E-02  2.17477931E-15
 -6.22432305E-01  1.09797173E-01 -5.02828270E-01 -1.84748389E-15  6.80058180E-01
 -1.19960830E-01 -9.14911719E-02  1.64017095E-01  4.72568629E-02 -6.84933410E-16
  7.51761796E-16 -2.45614821E-02  3.64261870E-01  9.74094918E-02  3.64123584E-01
  9.75126545E-02 -8.78435317E-02  1.37568116E-02  1.94229220E-17 -6.22432305E-01
  1.09797173E-01  5.02828270E-01 -1.30559647E-16  6.80058180E-01 -1.19960830E-01
  9.14911719E-02 -1.64017095E-01 -4.72568629E-02  5.18808291E-16 -2.66602868E-16
  2.45614821E-02 -3.64261870E-01 -9.74094918E-02 -3.64123584E-01 -9.75126545E-02
  6.81780026E-06  1.43943360E-04 -1.27709718E-15  1.14639810E-01  6.50205388E-01
 -5.58343213E-04  1.77348804E-15 -1.97685581E-01 -1.12015359E+00 -1.94838248E-05
  5.13679538E-02 -5.13558005E-02  5.49731293E-16  3.66499870E-17  1.62960113E-01
 -3.93077627E-01  1.13102040E+00  3.93107402E-01 -1.13093034E+00 -6.81780027E-06
 -1.43943360E-04  1.15794267E-15  1.14639810E-01  6.50205388E-01  5.58343213E-04
 -2.26215126E-15 -1.97685581E-01 -1.12015359E+00  1.94838248E-05 -5.13679538E-02
  5.13558005E-02 -1.08726464E-15  2.97178457E-16 -1.62960113E-01  3.93077627E-01
 -1.13102040E+00 -3.93107402E-01  1.13093034E+00  5.98773159E-06 -4.08575633E-04
  1.56889326E-15 -1.54037918E-01 -8.74428065E-01  7.79870376E-04 -2.75536428E-16
  4.75205487E-01  2.69632377E+00 -2.46731341E-05 -3.56949694E-03  3.56257014E-03
  5.01767209E-16  8.33742149E-16 -1.12016821E-02  2.38560741E-01 -1.51927375E+00
 -2.38210408E-01  1.51848851E+00  5.98773160E-06 -4.08575633E-04 -7.81269635E-16
  1.54037918E-01  8.74428065E-01  7.79870375E-04  1.33662834E-16 -4.75205487E-01
 -2.69632377E+00 -2.46731341E-05 -3.56949694E-03  3.56257014E-03  9.25069886E-16
  1.07288020E-15 -1.12016821E-02  2.38560741E-01 -1.51927375E+00 -2.38210408E-01
  1.51848851E+00 -2.30159719E-02  3.82167225E-01  2.01204776E-15 -5.98163713E-01
  1.05448423E-01 -2.13030595E-01 -2.30327652E-15  1.39787794E+00 -2.46421053E-01
  8.52726981E-02  1.07531536E-01 -1.08619920E-01 -1.02271661E-15  1.88132473E-15
 -4.54528251E-02 -4.86677818E-01  1.03266039E+00 -4.86583350E-01  1.03266924E+00
  2.30159719E-02 -3.82167225E-01 -1.19147498E-16 -5.98163713E-01  1.05448423E-01
  2.13030595E-01  1.16364300E-15  1.39787794E+00 -2.46421053E-01 -8.52726981E-02
 -1.07531536E-01  1.08619920E-01  1.24286721E-15 -4.36287348E-17  4.54528251E-02
  4.86677818E-01 -1.03266039E+00  4.86583350E-01 -1.03266924E+00  1.48497522E-02
 -9.97215034E-01  2.56671574E-15  3.31377947E-01 -5.80517904E-02  1.88968023E+00
 -2.06867627E-15 -5.04969306E-01  8.79972134E-02 -9.00570730E-02 -9.84022372E-02
  4.46340744E-02 -1.61571154E-16 -1.02414556E-15  3.00853560E-02  4.28454133E-01
 -9.34666162E-01  4.28651922E-01 -9.35809824E-01  1.48497522E-02 -9.97215034E-01
  4.38431983E-15 -3.31377947E-01  5.80517904E-02  1.88968023E+00 -3.41373818E-15
  5.04969306E-01 -8.79972134E-02 -9.00570730E-02 -9.84022372E-02  4.46340744E-02
  7.29310271E-17 -1.71571691E-15  3.00853560E-02  4.28454133E-01 -9.34666162E-01
  4.28651922E-01 -9.35809824E-01 -3.27009765E-02 -1.52805231E+00  9.84637757E-16
 -2.22744321E-01  3.93323469E-02  5.68542924E+00 -1.88976603E-15  1.89651478E+00
 -3.34477562E-01 -4.02696758E-02  1.74886662E-02 -1.79174139E-01 -2.39097187E-15
  8.72801840E-16 -4.13200409E-02 -1.06122837E-01 -3.98050992E-01 -1.06018195E-01
 -3.98226763E-01  3.27009765E-02  1.52805231E+00  3.53184657E-15 -2.22744321E-01
  3.93323469E-02 -5.68542924E+00 -1.65210538E-15  1.89651478E+00 -3.34477562E-01
  4.02696758E-02 -1.74886662E-02  1.79174139E-01  2.04184213E-15 -2.22596747E-15
  4.13200409E-02  1.06122837E-01  3.98050992E-01  1.06018195E-01  3.98226763E-01
 -2.06112630E-06 -1.90896698E-05  2.40234010E-15 -2.59642252E-02 -1.47244250E-01
  5.47472943E-05 -1.61340121E-15  4.99065018E-01  2.83050476E+00 -2.12783875E-05
  4.89261536E-02 -4.89130531E-02  1.48582730E-15 -2.80588274E-15  1.55250153E-01
 -6.74898559E-01 -8.15807426E-01  6.74795959E-01  8.15820954E-01 -2.06112631E-06
 -1.90896701E-05 -1.34564980E-15  2.59642252E-02  1.47244250E-01  5.47472956E-05
 -2.42923970E-16 -4.99065018E-01 -2.83050476E+00 -2.12783875E-05  4.89261536E-02
 -4.89130531E-02 -1.07744822E-15  1.53876065E-15  1.55250153E-01 -6.74898559E-01
 -8.15807426E-01  6.74795959E-01  8.15820954E-01  3.64903007E-17 -7.76083829E-15
 -1.74841739E-01 -5.26591975E-15 -3.04303715E-16  2.62677713E-14  3.73957366E-02
  1.45924856E-14 -5.77554384E-15  1.28650153E-15 -7.51593335E-16  6.67866464E-17
  6.09844342E-01 -1.07630677E-01 -8.74559024E-16  2.91181532E-15 -2.19815304E-15
 -3.06824734E-15  3.00905535E-15 -2.68315507E-17  6.33113344E-15 -1.74841739E-01
 -5.89386583E-15  1.75808558E-16 -2.60968640E-14  3.73957366E-02  1.68707970E-14
  6.51603291E-15 -4.04169056E-16  6.42584288E-16  1.60828775E-15 -6.09844342E-01
  1.07630677E-01  5.82273777E-17  3.38129514E-15  2.04423559E-15 -6.07011164E-17
 -5.62891828E-15 -3.56641375E-16 -5.63529006E-15 -4.24343149E-05  2.12958310E-15
  3.43603034E-15  1.67110744E-14  7.62555333E-06 -4.96669617E-15  1.17163170E-16
  1.58695144E-15 -2.57336231E-15 -9.83842476E-16  1.18078257E-01  6.69911093E-01
 -1.02805547E-15  3.35237387E-16 -8.84083499E-15  4.69343537E-15 -9.19769439E-15