monomer optimized                                                       
SP        RwB97XD                                                     6-31G(d)            
Number of atoms                            I                6
Info1-9                                    I   N=           9
          15          15           0           0           0         111
           1          18        -802
Full Title                                 C   N=           2
monomer optimized       
Route                                      C   N=           4
# SP wB97XD/6-31G* NoSymmetry IOp(3/32=2,3/33=1)
Charge                                     I                0
Multiplicity                               I                1
Number of electrons                        I               16
Number of alpha electrons                  I                8
Number of beta electrons                   I                8
Number of basis functions                  I               38
Number of independent functions            I               38
Number of point charges in /Mol/           I                0
Number of translation vectors              I                0
Atomic numbers                             I   N=           6
           6           1           1           6           1           1
Nuclear charges                            R   N=           6
  6.00000000E+00  1.00000000E+00  1.00000000E+00  6.00000000E+00  1.00000000E+00
  1.00000000E+00
Current cartesian coordinates              R   N=          18
  0.00000000E+00  0.00000000E+00  1.25468178E+00  0.00000000E+00  1.74708205E+00
  2.33445428E+00  0.00000000E+00 -1.74708205E+00  2.33445428E+00  0.00000000E+00
  0.00000000E+00 -1.25468178E+00  0.00000000E+00 -1.74708205E+00 -2.33445428E+00
  0.00000000E+00  1.74708205E+00 -2.33445428E+00
Number of symbols in /Mol/                 I                0
Force Field                                I                0
Atom Types                                 C   N=           6
                                                            
            
Int Atom Types                             I   N=           6
           0           0           0           0           0           0
MM charges                                 R   N=           6
  0.00000000E+00  0.00000000E+00  0.00000000E+00  0.00000000E+00  0.00000000E+00
  0.00000000E+00
Integer atomic weights                     I   N=           6
          12           1           1          12           1           1
Real atomic weights                        R   N=           6
  1.20000000E+01  1.00782504E+00  1.00782504E+00  1.20000000E+01  1.00782504E+00
  1.00782504E+00
Atom fragment info                         I   N=           6
           0           0           0           0           0           0
Atom residue num                           I   N=           6
           0           0           0           0           0           0
Nuclear spins                              I   N=           6
           0           1           1           0           1           1
Nuclear ZEff                               R   N=           6
 -3.60000000E+00 -1.00000000E+00 -1.00000000E+00 -3.60000000E+00 -1.00000000E+00
 -1.00000000E+00
Nuclear ZNuc                               R   N=           6
  6.00000000E+00  1.00000000E+00  1.00000000E+00  6.00000000E+00  1.00000000E+00
  1.00000000E+00
Nuclear QMom                               R   N=           6
  0.00000000E+00  0.00000000E+00  0.00000000E+00  0.00000000E+00  0.00000000E+00
  0.00000000E+00
Nuclear GFac                               R   N=           6
  0.00000000E+00  2.79284600E+00  2.79284600E+00  0.00000000E+00  2.79284600E+00
  2.79284600E+00
MicOpt                                     I   N=           6
          -1          -1          -1          -1          -1          -1
Number of residues                         I                0
Number of secondary structures             I                0
Number of contracted shells                I               16
Number of primitive shells                 I               38
Pure/Cartesian d shells                    I                1
Pure/Cartesian f shells                    I                0
Highest angular momentum                   I                2
Largest degree of contraction              I                6
Shell types                                I   N=          16
           0          -1          -1           2           0           0
           0           0           0          -1          -1           2
           0           0           0           0
Number of primitives per shell             I   N=          16
           6           3           1           1           3           1
           3           1           6           3           1           1
           3           1           3           1
Shell to atom map                          I   N=          16
           1           1           1           1           2           2
           3           3           4           4           4           4
           5           5           6           6
Primitive exponents                        R   N=          38
  3.04752488E+03  4.57369518E+02  1.03948685E+02  2.92101553E+01  9.28666296E+00
  3.16392696E+00  7.86827235E+00  1.88128854E+00  5.44249258E-01  1.68714478E-01
  8.00000000E-01  1.87311370E+01  2.82539436E+00  6.40121692E-01  1.61277759E-01
  1.87311370E+01  2.82539436E+00  6.40121692E-01  1.61277759E-01  3.04752488E+03
  4.57369518E+02  1.03948685E+02  2.92101553E+01  9.28666296E+00  3.16392696E+00
  7.86827235E+00  1.88128854E+00  5.44249258E-01  1.68714478E-01  8.00000000E-01
  1.87311370E+01  2.82539436E+00  6.40121692E-01  1.61277759E-01  1.87311370E+01
  2.82539436E+00  6.40121692E-01  1.61277759E-01
Contraction coefficients                   R   N=          38
  1.83473713E-03  1.40373228E-02  6.88426223E-02  2.32184443E-01  4.67941348E-01
  3.62311985E-01 -1.19332420E-01 -1.60854152E-01  1.14345644E+00  1.00000000E+00
  1.00000000E+00  3.34946043E-02  2.34726953E-01  8.13757326E-01  1.00000000E+00
  3.34946043E-02  2.34726953E-01  8.13757326E-01  1.00000000E+00  1.83473713E-03
  1.40373228E-02  6.88426223E-02  2.32184443E-01  4.67941348E-01  3.62311985E-01
 -1.19332420E-01 -1.60854152E-01  1.14345644E+00  1.00000000E+00  1.00000000E+00
  3.34946043E-02  2.34726953E-01  8.13757326E-01  1.00000000E+00  3.34946043E-02
  2.34726953E-01  8.13757326E-01  1.00000000E+00
P(S=P) Contraction coefficients            R   N=          38
  0.00000000E+00  0.00000000E+00  0.00000000E+00  0.00000000E+00  0.00000000E+00
  0.00000000E+00  6.89990666E-02  3.16423961E-01  7.44308291E-01  1.00000000E+00
  0.00000000E+00  0.00000000E+00  0.00000000E+00  0.00000000E+00  0.00000000E+00
  0.00000000E+00  0.00000000E+00  0.00000000E+00  0.00000000E+00  0.00000000E+00
  0.00000000E+00  0.00000000E+00  0.00000000E+00  0.00000000E+00  0.00000000E+00
  6.89990666E-02  3.16423961E-01  7.44308291E-01  1.00000000E+00  0.00000000E+00
  0.00000000E+00  0.00000000E+00  0.00000000E+00  0.00000000E+00  0.00000000E+00
  0.00000000E+00  0.00000000E+00  0.00000000E+00
Coordinates of each shell                  R   N=          48
  0.00000000E+00  0.00000000E+00  1.25468178E+00  0.00000000E+00  0.00000000E+00
  1.25468178E+00  0.00000000E+00  0.00000000E+00  1.25468178E+00  0.00000000E+00
  0.00000000E+00  1.25468178E+00  0.00000000E+00  1.74708205E+00  2.33445428E+00
  0.00000000E+00  1.74708205E+00  2.33445428E+00  0.00000000E+00 -1.74708205E+00
  2.33445428E+00  0.00000000E+00 -1.74708205E+00  2.33445428E+00  0.00000000E+00
  0.00000000E+00 -1.25468178E+00  0.00000000E+00  0.00000000E+00 -1.25468178E+00
  0.00000000E+00  0.00000000E+00 -1.25468178E+00  0.00000000E+00  0.00000000E+00
 -1.25468178E+00  0.00000000E+00 -1.74708205E+00 -2.33445428E+00  0.00000000E+00
 -1.74708205E+00 -2.33445428E+00  0.00000000E+00  1.74708205E+00 -2.33445428E+00
  0.00000000E+00  1.74708205E+00 -2.33445428E+00
Num ILSW                                   I              100
ILSW                                       I   N=         100
           0           1           0           0           2           0
           0           0           0           0        4639          -1
           4           0           0           0           0           0
           0           0           1           0           0           0
           1           1           0           0           0           0
           0           0      100000           0          -1           0
           0           0           0           0           0           0
           0           0           0           1           0           0
           0 -2000000000           1           0           0           0
           0           0         121          52           0           0
           0           0          58           0           0           0
           0           0           0           0           0           1
           0           0           0           0           0           0
           0           0           0           0           0           0
           0           0           0           0           0           0
           0           0           0           0           0           0
           0           0           0           0
Num RLSW                                   I               52
RLSW                                       R   N=          52
  1.00000000E+00  1.00000000E+00  1.00000000E+00  1.00000000E+00  1.00000000E+00
  0.00000000E+00  2.00000000E-01  2.22036000E-01  0.00000000E+00  7.77964000E-01
  0.00000000E+00  2.00000000E-01  0.00000000E+00  0.00000000E+00  1.00000000E+00
  0.00000000E+00  0.00000000E+00  1.00000000E+00  0.00000000E+00  0.00000000E+00
  0.00000000E+00  0.00000000E+00  1.00000000E+00  0.00000000E+00  0.00000000E+00
  0.00000000E+00  0.00000000E+00  1.00000000E+00  0.00000000E+00  0.00000000E+00
  0.00000000E+00  0.00000000E+00  1.00000000E+00  0.00000000E+00  0.00000000E+00
  0.00000000E+00  0.00000000E+00  0.00000000E+00  1.00000000E+00  1.00000000E+00
  0.00000000E+00  1.00000000E+00  0.00000000E+00  0.00000000E+00  0.00000000E+00
  0.00000000E+00  0.00000000E+00  0.00000000E+00  0.00000000E+00  0.00000000E+00
  0.00000000E+00  0.00000000E+00
MxBond                                     I                3
NBond                                      I   N=           6
           3           1           1           3           1           1
IBond                                      I   N=          18
           2           3           4           1           0           0
           1           0           0           1           5           6
           4           0           0           4           0           0
RBond                                      R   N=          18
  1.00000000E+00  1.00000000E+00  2.00000000E+00  1.00000000E+00  0.00000000E+00
  0.00000000E+00  1.00000000E+00  0.00000000E+00  0.00000000E+00  2.00000000E+00
  1.00000000E+00  1.00000000E+00  1.00000000E+00  0.00000000E+00  0.00000000E+00
  1.00000000E+00  0.00000000E+00  0.00000000E+00
Virial Ratio                               R      2.010034168589104E+00
SCF Energy                                 R     -7.855585023620858E+01
Total Energy                               R     -7.855585023620858E+01
RMS Density                                R      9.630394512183205E-09
Job Status                                 I                1
Nuclear derivative order                   I                0
External E-field                           R   N=          35
  0.00000000E+00  0.00000000E+00  0.00000000E+00  0.00000000E+00  0.00000000E+00
  0.00000000E+00  0.00000000E+00  0.00000000E+00  0.00000000E+00  0.00000000E+00
  0.00000000E+00  0.00000000E+00  0.00000000E+00  0.00000000E+00  0.00000000E+00
  0.00000000E+00  0.00000000E+00  0.00000000E+00  0.00000000E+00  0.00000000E+00
  0.00000000E+00  0.00000000E+00  0.00000000E+00  0.00000000E+00  0.00000000E+00
  0.00000000E+00  0.00000000E+00  0.00000000E+00  0.00000000E+00  0.00000000E+00
  0.00000000E+00  0.00000000E+00  0.00000000E+00  0.00000000E+00  0.00000000E+00
IOpCl                                      I                0
IROHF                                      I                0
Alpha Orbital Energies                     R   N=          38
 -1.02942715E+01 -1.02933322E+01 -8.54335173E-01 -6.68679004E-01 -5.52556988E-01
 -4.99728930E-01 -4.33291708E-01 -3.48189630E-01  9.65319521E-02  2.08238290E-01
  2.24926728E-01  2.45621870E-01  3.36351595E-01  4.14266852E-01  5.65200582E-01
  6.38507294E-01  6.57859771E-01  7.32172877E-01  7.40011096E-01  7.95474859E-01
  9.44935087E-01  9.73034756E-01  1.03192359E+00  1.03728025E+00  1.19526363E+00
  1.31303653E+00  1.54920996E+00  1.62410777E+00  1.91651528E+00  1.97513871E+00
  2.08257334E+00  2.18014748E+00  2.37784262E+00  2.47575896E+00  2.79436200E+00
  2.80052998E+00  4.20347456E+00  4.35024502E+00
Alpha MO coefficients                      R   N=        1444
  7.02059006E-01  3.23376756E-02  3.69088171E-17 -2.99969706E-16  2.76239304E-04
 -6.20713079E-03 -7.62889027E-17  9.41116061E-16 -7.31510392E-04 -6.19843872E-03
 -5.98551850E-03 -5.84701449E-03  8.45426154E-17  6.71807778E-17 -5.60399897E-17
 -3.12591610E-04  1.64588557E-03 -3.12591610E-04  1.64588557E-03  7.02059006E-01
  3.23376756E-02 -1.67135245E-16  1.17826328E-16 -2.76239304E-04 -6.20713079E-03
  2.12047340E-16 -1.38906524E-15  7.31510392E-04 -6.19843872E-03 -5.98551850E-03
 -5.84701449E-03  1.70548140E-16 -2.40187813E-16 -1.31515062E-16 -3.12591610E-04
  1.64588557E-03 -3.12591610E-04  1.64588557E-03  7.02438096E-01  3.31705302E-02
 -1.07055681E-16 -5.56104563E-16 -4.45727815E-04 -1.30480903E-02  1.23872553E-16
  3.27567196E-16  2.13892420E-03 -6.02033418E-03 -5.69412098E-03 -5.28407510E-03
 -5.45429517E-17 -7.71423266E-17 -4.22314470E-16 -1.91830522E-04  1.65957803E-03
 -1.91830522E-04  1.65957803E-03 -7.02438096E-01 -3.31705302E-02  4.13139170E-17
  4.21053729E-16 -4.45727815E-04  1.30480903E-02 -4.77527157E-16 -4.61249007E-16
  2.13892420E-03  6.02033418E-03  5.69412098E-03  5.28407510E-03  1.45998385E-16
 -1.08014427E-17 -6.92739705E-16  1.91830522E-04 -1.65957803E-03  1.91830522E-04
 -1.65957803E-03 -1.59770923E-01  3.02478368E-01  3.97774767E-16  7.66878107E-16
 -9.95206171E-02  2.34634816E-01 -1.73161558E-16 -1.57633329E-14 -4.97672517E-03
 -1.37838837E-02  2.47651628E-03  9.77179280E-03  5.40369208E-17  3.13173022E-17
  4.20385971E-17  8.32000217E-02  1.79177977E-02  8.32000217E-02  1.79177977E-02
 -1.59770923E-01  3.02478368E-01  1.33610905E-16 -2.25872219E-15  9.95206171E-02
  2.34634816E-01  3.19009196E-16  1.20502728E-14  4.97672517E-03 -1.37838837E-02
  2.47651628E-03  9.77179280E-03  1.25581740E-17  1.80369940E-17  4.50396191E-16
  8.32000217E-02  1.79177977E-02  8.32000217E-02  1.79177977E-02 -1.22417375E-01
  2.41147157E-01 -1.05155317E-15  7.05180498E-16  1.70436658E-01  2.35988532E-01
  6.03830559E-17 -6.74651594E-15  7.00647608E-02 -9.21485210E-03  1.54804800E-02
 -4.56122084E-03  8.66412327E-17 -1.45395764E-16 -8.80579139E-17  1.45259514E-01
  6.50380747E-02  1.45259514E-01  6.50380747E-02  1.22417375E-01 -2.41147157E-01
 -3.75863095E-16  1.95101714E-15  1.70436658E-01 -2.35988532E-01 -4.29855447E-16
  2.87702609E-16  7.00647608E-02  9.21485210E-03 -1.54804800E-02  4.56122084E-03
 -7.04780000E-17 -1.68469532E-16  2.77058977E-16 -1.45259514E-01 -6.50380747E-02
 -1.45259514E-01 -6.50380747E-02 -1.05842600E-15 -3.00913034E-15 -3.73430764E-15
  3.29112122E-01 -1.26655708E-14  3.52320307E-14 -3.93072717E-15  1.27240350E-01
 -2.13552222E-14 -1.10520324E-15 -1.75781903E-15  6.46377474E-16  1.50510892E-16
  1.95685552E-16  5.84180065E-03  1.55438740E-01  1.05912979E-01 -1.55438740E-01
 -1.05912979E-01  3.42879167E-17  3.83811275E-15 -3.45406595E-15  3.29112122E-01
  1.10384537E-14 -3.50669839E-14 -2.85979732E-15  1.27240350E-01 -1.40664106E-14
  1.64876151E-15  1.28021147E-15  8.20511638E-16 -8.68111814E-17 -1.62100867E-16
 -5.84180065E-03 -1.55438740E-01 -1.05912979E-01  1.55438740E-01  1.05912979E-01
  1.43325941E-02 -3.29516558E-02 -3.33051365E-17  6.13315863E-15  4.13742005E-01
  9.13429109E-03 -8.76883953E-16 -4.49144151E-15  1.48502117E-01  4.19954022E-04
  1.85772874E-02 -5.65515870E-03  7.29743422E-18  1.46174288E-16 -6.71363086E-19
  1.24455854E-01  1.01219455E-01  1.24455854E-01  1.01219455E-01  1.43325941E-02
 -3.29516558E-02 -6.31839689E-16  1.14814918E-14 -4.13742005E-01  9.13429109E-03
  2.12466222E-16  1.10580275E-14 -1.48502117E-01  4.19954022E-04  1.85772874E-02
 -5.65515870E-03  1.61697912E-16 -5.25755249E-17 -7.36128896E-16  1.24455854E-01
  1.01219455E-01  1.24455854E-01  1.01219455E-01 -5.96835736E-16 -5.64382650E-15
  1.17143760E-15  3.08762604E-01  4.91204929E-15  4.13338098E-14  5.11544637E-16
  1.52178956E-01 -1.46833350E-14 -1.04737016E-15 -8.27623468E-16  3.96248184E-16
 -1.39719722E-16 -1.32822009E-16  3.03980449E-02  1.95931877E-01  1.74949521E-01
 -1.95931877E-01 -1.74949521E-01  1.15028900E-15  3.84436745E-15  9.34865971E-16
 -3.08762604E-01 -5.77114283E-15 -3.47195423E-14  1.54865622E-15 -1.52178956E-01
 -2.03444173E-14  5.24559266E-16 -6.90365764E-17 -1.37359999E-15  5.72297165E-17
 -4.61798283E-17  3.03980449E-02  1.95931877E-01  1.74949521E-01 -1.95931877E-01
 -1.74949521E-01  3.55893948E-17 -5.41573590E-16  3.99202040E-01  1.30269178E-15
  4.17680887E-16  2.77202690E-16  2.85956554E-01 -5.69665028E-16  1.96948344E-16
  5.50866870E-17  1.87768610E-16 -1.83710160E-16 -8.08745285E-17 -1.72293932E-02
  2.11064636E-16  1.47255705E-15  1.08050636E-15 -5.56432043E-16 -7.63256727E-16
  1.33950378E-16 -2.80996852E-16  3.99202040E-01  2.78590483E-15 -2.68150141E-16
 -1.55556526E-16  2.85956554E-01  2.04169471E-15  1.25678864E-16 -3.47451000E-17
 -2.21044949E-17 -1.14756305E-16  3.00290074E-16  1.72293932E-02 -3.63793388E-16
 -1.95431020E-15 -1.08376810E-15  2.11694095E-15  1.18465016E-15  2.65729559E-17
  7.47821182E-17  4.08777139E-01 -1.12062396E-16  2.65803112E-16 -1.35294192E-15
  6.47752156E-01 -1.43156147E-15 -1.42787570E-15  4.54550419E-17  3.00003822E-18
 -1.37964397E-17 -1.30002280E-16  2.60506107E-02  3.34325945E-17  1.33760719E-16
  2.72774610E-15 -3.90613927E-16 -4.68635253E-16  4.31197980E-17 -1.10818231E-16
 -4.08777139E-01  1.72395803E-17 -3.29062085E-16 -1.35587584E-15 -6.47752156E-01
 -1.60804610E-15  6.93878113E-16  1.34481638E-17  3.67142255E-17 -6.18629722E-18
  3.99197011E-16  2.60506107E-02 -9.93483566E-17 -5.11499351E-16 -6.28688187E-16
  3.85380834E-16  1.88531090E-15 -8.11318521E-02  1.26733148E-01  1.60443132E-15
  4.32312849E-14  1.74898182E-01  1.38081923E+00 -8.47706606E-16  2.24512723E-13
  6.00991883E-01  1.36114374E-05 -1.39536480E-02  6.84444357E-03  2.06028223E-16
  2.30746370E-16 -3.26075410E-15 -4.46487823E-02 -9.75147703E-01 -4.46487823E-02
 -9.75147703E-01 -8.11318521E-02  1.26733148E-01 -1.39154276E-15  3.52181353E-14
 -1.74898182E-01  1.38081923E+00  1.39386604E-15 -2.54014884E-14 -6.00991883E-01
  1.36114375E-05 -1.39536480E-02  6.84444357E-03  7.75860832E-17  1.35591631E-16
  3.81731158E-15 -4.46487823E-02 -9.75147703E-01 -4.46487823E-02 -9.75147703E-01
 -1.54941096E-14  2.16456655E-14 -2.31143813E-15 -2.98024475E-01  2.54324688E-14
  3.39957153E-13 -9.89566096E-16 -7.21071044E-01 -5.44597687E-14 -8.49127562E-16
 -4.87446640E-15  6.97143222E-16 -1.60033934E-16  1.86368967E-16  2.92763652E-02
  8.18838314E-02  1.00184495E+00 -8.18838314E-02 -1.00184495E+00 -6.43910356E-15
  4.17056557E-15  5.64517024E-17 -2.98024475E-01 -3.02278462E-14  3.67954923E-14
  1.22891273E-15 -7.21071044E-01 -2.06237620E-13  1.50844789E-15  2.68081716E-15
  2.37750822E-15 -4.70074735E-16 -1.75741404E-16 -2.92763652E-02 -8.18838314E-02
 -1.00184495E+00  8.18838314E-02  1.00184495E+00 -1.13663920E-01  1.59101079E-01
  4.60092181E-16 -5.55732329E-15  1.14726179E-01  1.82602467E+00 -8.47151601E-17
 -2.23639197E-14  1.04459399E-01 -5.61692791E-03 -1.76069749E-04 -6.28759408E-03
  1.57761091E-16 -8.74954236E-17 -1.16366866E-15 -5.55423320E-02 -9.95585422E-01
 -5.55423320E-02 -9.95585422E-01  1.13663920E-01 -1.59101079E-01 -1.60193916E-16
  7.77080311E-15  1.14726179E-01 -1.82602467E+00 -2.53459175E-16  4.73504116E-14
  1.04459399E-01  5.61692791E-03  1.76069749E-04  6.28759408E-03 -1.48373899E-16
 -2.60696201E-18  2.73842664E-17  5.55423320E-02  9.95585422E-01  5.55423320E-02
  9.95585422E-01  1.12142893E-14 -1.76146343E-14  1.66100872E-15  3.23488036E-01
  3.03653504E-14 -4.77348876E-13 -3.57081576E-16  1.67806613E+00  3.82245523E-13
  4.81337810E-16  1.34401468E-15  2.41738364E-15 -1.04639738E-16  8.04441366E-17
  1.78336490E-02  1.47868119E-02 -1.49425069E+00 -1.47868119E-02  1.49425069E+00
 -6.29211706E-15 -6.21308985E-14  1.40295985E-15 -3.23488036E-01  3.04929399E-14
  4.54926530E-13 -9.45269900E-16 -1.67806613E+00  4.44524069E-13 -5.93414516E-15
  5.19461981E-15 -3.12118748E-15  2.70688959E-16 -1.84957921E-16  1.78336490E-02
  1.47868119E-02 -1.49425069E+00 -1.47868119E-02  1.49425069E+00 -7.07411146E-02
  2.99649381E-02  7.99734691E-17  7.65346388E-14 -1.93397682E-01  2.99488541E+00
 -1.24093408E-15  1.59839261E-13 -2.85325529E+00 -8.91698081E-03  2.83288964E-02
 -2.05971720E-02 -5.51232977E-17  2.87587378E-16  3.55269049E-16  8.40189669E-02
  5.48715401E-01  8.40189669E-02  5.48715401E-01  7.07411146E-02 -2.99649381E-02
 -1.63292974E-15 -2.92899573E-14 -1.93397682E-01 -2.99488541E+00  2.63957686E-15
 -1.54424984E-13 -2.85325529E+00  8.91698081E-03 -2.83288964E-02  2.05971720E-02
  1.39465833E-16  6.66174947E-17  3.79889947E-15 -8.40189669E-02 -5.48715401E-01
 -8.40189669E-02 -5.48715401E-01  2.13230195E-02  1.99380388E-01 -2.22330193E-15
  9.31324777E-15 -5.61436455E-01  2.48121643E-01  2.20522132E-15  3.91042582E-15
  1.04887639E+00 -4.50394018E-03 -3.59949566E-02  7.76300301E-02  2.61033089E-16
 -1.52901041E-16  2.62347208E-15 -6.69143729E-02 -1.05194060E-01 -6.69143729E-02
 -1.05194060E-01  2.13230195E-02  1.99380388E-01 -5.01768919E-15 -1.80563041E-14
  5.61436455E-01  2.48121643E-01  4.55302261E-15 -3.66812167E-15 -1.04887639E+00
 -4.50394018E-03 -3.59949566E-02  7.76300301E-02  3.20614553E-16 -5.06883444E-16
 -1.01615382E-15 -6.69143729E-02 -1.05194060E-01 -6.69143729E-02 -1.05194060E-01
 -4.25420121E-17  1.42120882E-15  7.30123097E-01 -1.05385662E-14 -4.48907875E-15
  1.41399414E-15 -6.49076979E-01  2.24070100E-14  5.74253577E-15  2.57285574E-16
 -3.98736181E-16  1.59576215E-16  5.04494474E-16 -5.70060730E-02 -9.03060485E-16
 -4.97285091E-15 -5.59223922E-15  3.13385674E-15  5.60606704E-15  9.14196050E-17
 -3.23880013E-15  7.30123097E-01 -1.17603244E-16  1.55297977E-15  9.37979971E-15
 -6.49076979E-01 -3.59915277E-15 -7.95749623E-15  2.73949161E-16 -5.51334665E-16
  7.72357357E-16 -1.48645900E-16  5.70060730E-02  6.69575709E-16  2.65090673E-15
 -7.64116412E-15 -5.42271024E-15  8.07808418E-16 -1.22447238E-15  3.94195305E-14
 -3.82906939E-15 -4.17531806E-01 -1.44273943E-14 -1.70546874E-14  1.39280044E-15
  7.75099055E-01 -5.55310643E-14  1.84851444E-15  6.46674789E-15 -2.84708657E-15
 -1.68661877E-16  8.99939056E-16 -9.40010182E-02 -3.80329466E-01 -6.53902182E-02
  3.80329466E-01  6.53902182E-02  1.75089144E-15 -4.85786713E-15 -1.45482214E-14
 -4.17531806E-01 -7.73519855E-15 -2.68531171E-14  1.43602655E-14  7.75099055E-01
 -5.86497236E-14 -3.40433072E-15 -5.02306915E-15  3.50011817E-15 -4.90873835E-16
 -2.49145576E-16  9.40010182E-02  3.80329466E-01  6.53902182E-02 -3.80329466E-01
 -6.53902182E-02  4.63282894E-15  9.76901630E-14 -7.89483122E-01 -8.06505689E-15
 -2.18630301E-15 -1.81111443E-13  1.13314280E+00  2.78756748E-14 -4.78939150E-14
 -6.64780823E-15  2.02111209E-14  1.04813413E-14 -2.44899370E-16 -2.19584182E-02
 -1.05809016E-15  5.02402301E-14  1.25212286E-14  5.53026606E-14  3.75530349E-14
  4.67138991E-15  9.42248441E-14  7.89483122E-01  2.08228303E-15  1.84199767E-15
 -1.79342929E-13 -1.13314280E+00 -1.29638251E-14  4.00902376E-14 -7.03418390E-15
  1.88685435E-14  1.03343801E-14 -6.16890559E-16 -2.19584182E-02  2.46029059E-16
  5.21090820E-14  1.69296507E-14  4.89154812E-14  2.93265126E-14 -3.72365574E-02
 -7.24249589E-01 -1.02244709E-13 -3.99753315E-14  2.19294068E-02  1.37853177E+00
  1.45755799E-13  1.03049869E-13  3.47091358E-01  5.55601213E-02 -1.52503775E-01
 -7.95256991E-02  1.54315620E-15 -2.98061305E-15 -5.54185405E-15 -4.18827629E-01
 -1.72887709E-01 -4.18827629E-01 -1.72887709E-01 -3.72365574E-02 -7.24249589E-01
  9.82742836E-14  4.11490308E-14 -2.19294068E-02  1.37853177E+00 -1.42474103E-13
 -1.01016654E-13 -3.47091358E-01  5.55601213E-02 -1.52503775E-01 -7.95256991E-02
  5.30218915E-16 -2.55346358E-15  3.09955828E-15 -4.18827629E-01 -1.72887709E-01
 -4.18827629E-01 -1.72887709E-01 -8.78353851E-02  1.38303148E-02 -2.01575261E-15
  3.62948339E-15 -6.32043433E-01  5.02030804E-01  1.94895883E-15 -2.65825053E-14
  6.91238255E-01  9.14712004E-02 -4.34403603E-02 -1.67840492E-01  6.12133430E-16
 -3.97262206E-16  4.40074752E-15 -3.64166613E-01 -9.76013474E-02 -3.64166613E-01
 -9.76013474E-02  8.78353851E-02 -1.38303148E-02  3.56620756E-16 -3.50111124E-14
 -6.32043433E-01 -5.02030804E-01 -6.75864728E-16  6.85068560E-14  6.91238255E-01
 -9.14712004E-02  4.34403603E-02  1.67840492E-01 -1.00087181E-15  3.29501139E-16
 -2.88281703E-15  3.64166613E-01  9.76013474E-02  3.64166613E-01  9.76013474E-02
  1.14278564E-15 -1.37567141E-13 -3.95592883E-16 -6.60155424E-01 -4.18567367E-15
  3.68679292E-13  1.01806550E-16  1.13770506E+00 -5.33014709E-14 -1.47799777E-14
  4.62480491E-16 -2.18328521E-15 -1.23698964E-15  2.87529304E-16  1.73550014E-01
  3.92944538E-01 -1.13111363E+00 -3.92944538E-01  1.13111363E+00 -1.59860306E-15
  7.81222016E-14 -2.30214567E-15 -6.60155424E-01 -4.37190700E-16 -2.70844108E-13
  2.49736128E-15  1.13770506E+00 -6.03318237E-14  1.26493422E-14 -9.35064598E-16
 -6.46586325E-15  3.98949341E-17  9.29076037E-16 -1.73550014E-01 -3.92944538E-01
  1.13111363E+00  3.92944538E-01 -1.13111363E+00  4.52926438E-15 -1.27432782E-13
  1.23701123E-15 -8.87868850E-01 -1.03900375E-13  1.57303326E-13 -4.93982871E-15
  2.73772258E+00  1.68963249E-13 -2.34829451E-14  2.70880100E-14 -1.57488279E-14
  6.19385018E-16  1.44525184E-15  1.19922922E-02  2.38424283E-01 -1.51886785E+00
 -2.38424283E-01  1.51886785E+00  5.42050644E-15 -2.14795272E-13 -9.49108756E-15
  8.87868850E-01  3.77263721E-14  4.61763032E-13  1.22134531E-14 -2.73772258E+00
 -1.49016684E-14 -2.88421441E-14  1.49352312E-14 -6.02292351E-15 -9.33860892E-16
 -2.33312433E-15  1.19922922E-02  2.38424283E-01 -1.51886785E+00 -2.38424283E-01
  1.51886785E+00  2.30140840E-02 -3.82318077E-01  4.61091541E-16  4.79395042E-14
 -6.07347284E-01  2.13790019E-01  7.30698297E-17 -7.57505398E-14  1.41901986E+00
 -8.52813430E-02  1.15500796E-01 -1.14404246E-01 -2.66784057E-16 -1.11406251E-15
 -1.05807477E-14  4.86671767E-01 -1.03268765E+00  4.86671767E-01 -1.03268765E+00
 -2.30140840E-02  3.82318077E-01 -1.49424622E-15  1.48851512E-14 -6.07347284E-01
 -2.13790019E-01  9.41810218E-16 -4.33288457E-14  1.41901986E+00  8.52813430E-02
 -1.15500796E-01  1.14404246E-01 -2.03100754E-17  1.06326834E-15  4.74241611E-15
 -4.86671767E-01  1.03268765E+00 -4.86671767E-01  1.03268765E+00  1.48506864E-02
 -9.97157892E-01 -3.84398605E-15  1.76063161E-13 -3.36378980E-01  1.88951381E+00
  6.09351359E-15 -4.82379069E-13  5.12454483E-01 -9.00447205E-02  4.91829774E-02
 -1.02963486E-01  2.62075927E-15  1.20650097E-15 -1.03597727E-14  4.28632556E-01
 -9.35214319E-01  4.28632556E-01 -9.35214319E-01  1.48506864E-02 -9.97157892E-01
  3.38935180E-15 -1.48363153E-13  3.36378980E-01  1.88951381E+00 -5.61544923E-15
  4.35937467E-13 -5.12454483E-01 -9.00447205E-02  4.91829774E-02 -1.02963486E-01
  4.09646903E-17 -5.53838785E-16 -2.49843534E-15  4.28632556E-01 -9.35214319E-01
  4.28632556E-01 -9.35214319E-01 -3.27041168E-02 -1.52804107E+00  2.16250065E-16
  2.43307657E-14  2.26261929E-01  5.68530188E+00  1.11946136E-15 -3.13126557E-13
 -1.92578733E+00 -4.02244646E-02 -1.85451333E-01  2.37423984E-02  1.50193514E-16
 -1.02130052E-15 -4.84840191E-15 -1.06163936E-01 -3.98045171E-01 -1.06163936E-01
 -3.98045171E-01  3.27041168E-02  1.52804107E+00  3.43802680E-15  3.15942245E-14
  2.26261929E-01 -5.68530188E+00 -4.46393017E-15  1.95676909E-13 -1.92578733E+00
  4.02244646E-02  1.85451333E-01 -2.37423984E-02 -8.90730885E-18  1.35880462E-15
  3.71977257E-14  1.06163936E-01  3.98045171E-01  1.06163936E-01  3.98045171E-01
 -5.24090468E-15 -1.38839854E-13  5.13986866E-18 -1.49587224E-01  4.57432312E-14
  6.24991019E-13 -1.51683543E-15  2.87433191E+00 -3.04799353E-13 -4.43866273E-15
 -1.96138157E-14  1.25903343E-15 -3.96832763E-15  2.94580872E-15 -1.65283301E-01
 -6.74789254E-01 -8.15918254E-01  6.74789254E-01  8.15918254E-01  5.80738351E-15
  2.04895062E-13 -3.09065882E-15  1.49587224E-01  2.76703101E-14 -7.74799794E-13
  4.56206776E-15 -2.87433191E+00 -2.61716330E-13 -4.20555515E-15  3.19869480E-14
  1.14585733E-14 -8.57923577E-16 -1.83220711E-15 -1.65283301E-01 -6.74789254E-01
 -8.15918254E-01  6.74789254E-01  8.15918254E-01 -1.77040918E-16 -4.40381022E-15
  1.74818729E-01  2.77903545E-15 -1.22857203E-15  1.27068662E-14 -3.73794973E-02
 -2.24793189E-14  1.38674327E-15 -1.27811073E-15  1.18712308E-15  1.41508538E-15
 -1.92702559E-14  6.19271018E-01 -9.90956979E-16  1.66394702E-15  6.12147300E-15
 -5.99344411E-15 -1.10576591E-14 -2.05107102E-16  4.66978279E-15  1.74818729E-01
 -3.65305475E-15 -2.78464321E-15 -1.09271274E-14 -3.73794973E-02  2.30383854E-14
 -7.62776632E-16 -2.89315401E-15  2.10730333E-15  5.10646348E-17 -1.36095213E-14
 -6.19271018E-01  1.31850294E-15 -2.81748525E-15  1.55121344E-14 -3.84040421E-15
 -6.90070406E-15  2.75253063E-16  3.38196806E-15  3.67051406E-15 -2.40600062E-15
  1.54062254E-15 -1.22533877E-14  1.22738326E-15  1.76016448E-14 -2.56533434E-15
 -4.53114903E-16  6.18099829E-16  1.13703263E-15  6.80237714E-01  1.73167141E-14
  3.38348123E-16 -3.19085244E-15 -2.93101173E-15  4.08175548E-15  9.72439921E-15