 Entering Gaussian System, Link 0=g16
 Input=dimer.gjf
 Output=dimer.out
 Initial command:
 C:\G16W\l1.exe ".\Gau-16824.inp" "dimer.out" /scrdir=".\"
 Entering Link 1 = C:\G16W\l1.exe PID=     18168.
  
 Copyright (c) 1988-2017, Gaussian, Inc.  All Rights Reserved.
  
 This is part of the Gaussian(R) 16 program.  It is based on
 the Gaussian(R) 09 system (copyright 2009, Gaussian, Inc.),
 the Gaussian(R) 03 system (copyright 2003, Gaussian, Inc.),
 the Gaussian(R) 98 system (copyright 1998, Gaussian, Inc.),
 the Gaussian(R) 94 system (copyright 1995, Gaussian, Inc.),
 the Gaussian 92(TM) system (copyright 1992, Gaussian, Inc.),
 the Gaussian 90(TM) system (copyright 1990, Gaussian, Inc.),
 the Gaussian 88(TM) system (copyright 1988, Gaussian, Inc.),
 the Gaussian 86(TM) system (copyright 1986, Carnegie Mellon
 University), and the Gaussian 82(TM) system (copyright 1983,
 Carnegie Mellon University). Gaussian is a federally registered
 trademark of Gaussian, Inc.
  
 This software contains proprietary and confidential information,
 including trade secrets, belonging to Gaussian, Inc.
  
 This software is provided under written license and may be
 used, copied, transmitted, or stored only in accord with that
 written license.
  
 The following legend is applicable only to US Government
 contracts under FAR:
  
                    RESTRICTED RIGHTS LEGEND
  
 Use, reproduction and disclosure by the US Government is
 subject to restrictions as set forth in subparagraphs (a)
 and (c) of the Commercial Computer Software - Restricted
 Rights clause in FAR 52.227-19.
  
 Gaussian, Inc.
 340 Quinnipiac St., Bldg. 40, Wallingford CT 06492
  
  
 ---------------------------------------------------------------
 Warning -- This program may not be used in any manner that
 competes with the business of Gaussian, Inc. or will provide
 assistance to any competitor of Gaussian, Inc.  The licensee
 of this program is prohibited from giving any competitor of
 Gaussian, Inc. access to this program.  By using this program,
 the user acknowledges that Gaussian, Inc. is engaged in the
 business of creating and licensing software in the field of
 computational chemistry and represents and warrants to the
 licensee that it is not a competitor of Gaussian, Inc. and that
 it will not use this program in any manner prohibited above.
 ---------------------------------------------------------------
  

 Cite this work as:
 Gaussian 16, Revision B.01,
 M. J. Frisch, G. W. Trucks, H. B. Schlegel, G. E. Scuseria, 
 M. A. Robb, J. R. Cheeseman, G. Scalmani, V. Barone, 
 G. A. Petersson, H. Nakatsuji, X. Li, M. Caricato, A. V. Marenich, 
 J. Bloino, B. G. Janesko, R. Gomperts, B. Mennucci, H. P. Hratchian, 
 J. V. Ortiz, A. F. Izmaylov, J. L. Sonnenberg, D. Williams-Young, 
 F. Ding, F. Lipparini, F. Egidi, J. Goings, B. Peng, A. Petrone, 
 T. Henderson, D. Ranasinghe, V. G. Zakrzewski, J. Gao, N. Rega, 
 G. Zheng, W. Liang, M. Hada, M. Ehara, K. Toyota, R. Fukuda, 
 J. Hasegawa, M. Ishida, T. Nakajima, Y. Honda, O. Kitao, H. Nakai, 
 T. Vreven, K. Throssell, J. A. Montgomery, Jr., J. E. Peralta, 
 F. Ogliaro, M. J. Bearpark, J. J. Heyd, E. N. Brothers, K. N. Kudin, 
 V. N. Staroverov, T. A. Keith, R. Kobayashi, J. Normand, 
 K. Raghavachari, A. P. Rendell, J. C. Burant, S. S. Iyengar, 
 J. Tomasi, M. Cossi, J. M. Millam, M. Klene, C. Adamo, R. Cammi, 
 J. W. Ochterski, R. L. Martin, K. Morokuma, O. Farkas, 
 J. B. Foresman, and D. J. Fox, Gaussian, Inc., Wallingford CT, 2016.
 
 ******************************************
 Gaussian 16:  EM64W-G16RevB.01 16-Dec-2017
                10-May-2022 
 ******************************************
 %chk=dimer.chk
 -----------------------------------
 # PM7 IOp(3/32=2,3/33=1) NoSymmetry
 -----------------------------------
 1/38=1,172=1/1;
 2/12=2,15=1,17=6,18=5,40=1/2;
 3/5=2,25=1,32=2,33=1,41=4200000/1,2,3;
 4/35=1/1;
 5/5=2,35=1,38=5/2;
 6/7=2,8=2,9=2,10=2,28=1/1;
 99/5=1,9=1/99;
 -----------------
 monomer optimized
 -----------------
 Symbolic Z-matrix:
 Charge =  0 Multiplicity = 1
 C                     0.        0.        0.66395 
 H                     0.        0.92452   1.23534 
 H                     0.       -0.92452   1.23534 
 C                     0.        0.       -0.66395 
 H                     0.       -0.92452  -1.23534 
 H                     0.        0.92452  -1.23534 
 C                     0.       -0.45386   3.71529 
 H                     0.       -0.85603   4.72499 
 H                     0.       -1.17711   2.90404 
 C                     0.        0.85386   3.48471 
 H                     0.        1.25603   2.47502 
 H                     0.        1.57711   4.29596 
 
                          Input orientation:                          
 ---------------------------------------------------------------------
 Center     Atomic      Atomic             Coordinates (Angstroms)
 Number     Number       Type             X           Y           Z
 ---------------------------------------------------------------------
      1          6           0        0.000000    0.000000    0.663949
      2          1           0        0.000000    0.924516    1.235340
      3          1           0        0.000000   -0.924516    1.235340
      4          6           0        0.000000    0.000000   -0.663949
      5          1           0        0.000000   -0.924516   -1.235340
      6          1           0        0.000000    0.924516   -1.235340
      7          6           0        0.000000   -0.453862    3.715294
      8          1           0        0.000000   -0.856032    4.724985
      9          1           0        0.000000   -1.177113    2.904044
     10          6           0        0.000000    0.853862    3.484707
     11          1           0        0.000000    1.256032    2.475015
     12          1           0        0.000000    1.577113    4.295956
 ---------------------------------------------------------------------
                    Distance matrix (angstroms):
                    1          2          3          4          5
     1  C    0.000000
     2  H    1.086838   0.000000
     3  H    1.086838   1.849032   0.000000
     4  C    1.327898   2.112352   2.112352   0.000000
     5  H    2.112352   3.085965   2.470680   1.086838   0.000000
     6  H    2.112352   2.470680   3.085965   1.086838   1.849032
     7  C    3.084914   2.837269   2.524220   4.402699   4.972956
     8  H    4.150278   3.917649   3.490317   5.456501   5.960719
     9  H    2.530538   2.683546   1.687714   3.757149   4.147084
    10  C    2.947160   2.250476   2.867452   4.235614   5.043954
    11  H    2.203991   1.283237   2.508303   3.380934   4.303664
    12  H    3.959642   3.129418   3.952913   5.204608   6.070699
                    6          7          8          9         10
     6  H    0.000000
     7  C    5.138940   0.000000
     8  H    6.220597   1.086838   0.000000
     9  H    4.642343   1.086838   1.849032   0.000000
    10  C    4.720576   1.327898   2.112352   2.112352   0.000000
    11  H    3.725136   2.112352   3.085965   2.470680   1.086838
    12  H    5.569661   2.112352   2.470680   3.085965   1.086838
                   11         12
    11  H    0.000000
    12  H    1.849032   0.000000
 Symmetry turned off by external request.
 Stoichiometry    C4H8
 Framework group  CS[SG(C4H8)]
 Deg. of freedom    21
 Full point group                 CS      NOp   2
 Rotational constants (GHZ):          25.2663633           2.4950016           2.2707679
 AM1Par:  IHMeth= 43 ICntrl=       101 IPrPar=         0.
 Standard basis: VSTO-6G (5D, 7F)
                         Coordinates in L301:                         
 ---------------------------------------------------------------------
 Center     Atomic      Atomic             Coordinates (Angstroms)
 Number     Number       Type             X           Y           Z
 ---------------------------------------------------------------------
      1          6           0        0.000000    0.000000    0.663949
      2          1           0        0.000000    0.924516    1.235340
      3          1           0        0.000000   -0.924516    1.235340
      4          6           0        0.000000    0.000000   -0.663949
      5          1           0        0.000000   -0.924516   -1.235340
      6          1           0        0.000000    0.924516   -1.235340
      7          6           0        0.000000   -0.453862    3.715294
      8          1           0        0.000000   -0.856032    4.724985
      9          1           0        0.000000   -1.177113    2.904044
     10          6           0        0.000000    0.853862    3.484707
     11          1           0        0.000000    1.256032    2.475015
     12          1           0        0.000000    1.577113    4.295956
 ---------------------------------------------------------------------
 FixB: optimizing general contractions.
 Ernie: Thresh=  0.10000D-02 Tol=  0.10000D-05 Strict=F.
 IA=     1 ShT= 1 ShC= 0 NL=   1 NS=   0.
 IA=     1 L=1 SC=0 ISt=    0 NBk=    0 NP=    0 IndPr=    0.
 IA=     2 ShT= 0 ShC= 0 NL=   1 NS=   0.
 IA=     2 L=0 SC=0 ISt=    0 NBk=    0 NP=    0 IndPr=    0.
 IA=     3 ShT= 0 ShC= 0 NL=   1 NS=   0.
 IA=     3 L=0 SC=0 ISt=    0 NBk=    0 NP=    0 IndPr=    0.
 IA=     4 ShT= 1 ShC= 0 NL=   1 NS=   0.
 IA=     4 L=1 SC=0 ISt=    0 NBk=    0 NP=    0 IndPr=    0.
 IA=     5 ShT= 0 ShC= 0 NL=   1 NS=   0.
 IA=     5 L=0 SC=0 ISt=    0 NBk=    0 NP=    0 IndPr=    0.
 IA=     6 ShT= 0 ShC= 0 NL=   1 NS=   0.
 IA=     6 L=0 SC=0 ISt=    0 NBk=    0 NP=    0 IndPr=    0.
 IA=     7 ShT= 1 ShC= 0 NL=   1 NS=   0.
 IA=     7 L=1 SC=0 ISt=    0 NBk=    0 NP=    0 IndPr=    0.
 IA=     8 ShT= 0 ShC= 0 NL=   1 NS=   0.
 IA=     8 L=0 SC=0 ISt=    0 NBk=    0 NP=    0 IndPr=    0.
 IA=     9 ShT= 0 ShC= 0 NL=   1 NS=   0.
 IA=     9 L=0 SC=0 ISt=    0 NBk=    0 NP=    0 IndPr=    0.
 IA=    10 ShT= 1 ShC= 0 NL=   1 NS=   0.
 IA=    10 L=1 SC=0 ISt=    0 NBk=    0 NP=    0 IndPr=    0.
 IA=    11 ShT= 0 ShC= 0 NL=   1 NS=   0.
 IA=    11 L=0 SC=0 ISt=    0 NBk=    0 NP=    0 IndPr=    0.
 IA=    12 ShT= 0 ShC= 0 NL=   1 NS=   0.
 IA=    12 L=0 SC=0 ISt=    0 NBk=    0 NP=    0 IndPr=    0.
 LdAtmC:  AtmChg=     4.000000     1.000000     1.000000     4.000000     1.000000
 LdAtmC:  AtmChg=     1.000000     4.000000     1.000000     1.000000     4.000000
 LdAtmC:  AtmChg=     1.000000     1.000000
 EHB=         0.000000000 Number of Hydrogen Bonds=     0
  NNHCO=     0 NNPyr=     0 NCTC=     0               EPep=         0.000000000
    EC=        50.865782573  ECS=         1.924007832   EG=         0.312842166
   EHC=         0.000400190  EAt=       -20.260771414  AtH=         1.753560775
 EPDDG=         0.000000000  ECC=        53.103032762 EAtT=        22.014332189
  EHyb=         0.000000000
 AtZEff=     -3.9000000     -1.0000000     -1.0000000     -3.9000000     -1.0000000
 AtZEff=     -1.0000000     -3.9000000     -1.0000000     -1.0000000     -3.9000000
 AtZEff=     -1.0000000     -1.0000000
    24 basis functions,   144 primitive gaussians,    24 cartesian basis functions
    12 alpha electrons       12 beta electrons
       nuclear repulsion energy        75.1173649507 Hartrees.
 IS=     1 IAt=     1 ISR=     1 T=1 IP=      1 IndIP=      1 IndIPD=      0 C= -3.990167D-02 -2.131836D-01                             NZ=T
 IS=     1 IAt=     1 ISR=     1 T=1 IP=      2 IndIP=      2 IndIPD=      1 C= -1.170370D-01 -9.517738D-02                             NZ=T
 IS=     1 IAt=     1 ISR=     1 T=1 IP=      3 IndIP=      3 IndIPD=      2 C= -1.372952D-01  1.273628D-01                             NZ=T
 IS=     1 IAt=     1 ISR=     1 T=1 IP=      4 IndIP=      4 IndIPD=      3 C=  5.735542D-02  2.575035D-01                             NZ=T
 IS=     1 IAt=     1 ISR=     1 T=1 IP=      5 IndIP=      5 IndIPD=      4 C=  1.920475D-01  1.351320D-01                             NZ=T
 IS=     1 IAt=     1 ISR=     1 T=1 IP=      6 IndIP=      6 IndIPD=      5 C=  4.816740D-02  1.386470D-02                             NZ=T
 IS=     2 IAt=     2 ISR=     1 T=0 IP=      1 IndIP=      7 IndIPD=      0 C= -2.085517D-02  0.000000D+00                             NZ=T
 IS=     2 IAt=     2 ISR=     1 T=0 IP=      2 IndIP=      8 IndIPD=      1 C= -6.117102D-02  0.000000D+00                             NZ=T
 IS=     2 IAt=     2 ISR=     1 T=0 IP=      3 IndIP=      9 IndIPD=      2 C= -7.175926D-02  0.000000D+00                             NZ=T
 IS=     2 IAt=     2 ISR=     1 T=0 IP=      4 IndIP=     10 IndIPD=      3 C=  2.997762D-02  0.000000D+00                             NZ=T
 IS=     2 IAt=     2 ISR=     1 T=0 IP=      5 IndIP=     11 IndIPD=      4 C=  1.003763D-01  0.000000D+00                             NZ=T
 IS=     2 IAt=     2 ISR=     1 T=0 IP=      6 IndIP=     12 IndIPD=      5 C=  2.517537D-02  0.000000D+00                             NZ=T
 IS=     3 IAt=     3 ISR=     1 T=0 IP=      1 IndIP=     13 IndIPD=      0 C= -2.085517D-02  0.000000D+00                             NZ=T
 IS=     3 IAt=     3 ISR=     1 T=0 IP=      2 IndIP=     14 IndIPD=      1 C= -6.117102D-02  0.000000D+00                             NZ=T
 IS=     3 IAt=     3 ISR=     1 T=0 IP=      3 IndIP=     15 IndIPD=      2 C= -7.175926D-02  0.000000D+00                             NZ=T
 IS=     3 IAt=     3 ISR=     1 T=0 IP=      4 IndIP=     16 IndIPD=      3 C=  2.997762D-02  0.000000D+00                             NZ=T
 IS=     3 IAt=     3 ISR=     1 T=0 IP=      5 IndIP=     17 IndIPD=      4 C=  1.003763D-01  0.000000D+00                             NZ=T
 IS=     3 IAt=     3 ISR=     1 T=0 IP=      6 IndIP=     18 IndIPD=      5 C=  2.517537D-02  0.000000D+00                             NZ=T
 IS=     4 IAt=     4 ISR=     1 T=1 IP=      1 IndIP=     19 IndIPD=      0 C= -3.990167D-02 -2.131836D-01                             NZ=T
 IS=     4 IAt=     4 ISR=     1 T=1 IP=      2 IndIP=     20 IndIPD=      1 C= -1.170370D-01 -9.517738D-02                             NZ=T
 IS=     4 IAt=     4 ISR=     1 T=1 IP=      3 IndIP=     21 IndIPD=      2 C= -1.372952D-01  1.273628D-01                             NZ=T
 IS=     4 IAt=     4 ISR=     1 T=1 IP=      4 IndIP=     22 IndIPD=      3 C=  5.735542D-02  2.575035D-01                             NZ=T
 IS=     4 IAt=     4 ISR=     1 T=1 IP=      5 IndIP=     23 IndIPD=      4 C=  1.920475D-01  1.351320D-01                             NZ=T
 IS=     4 IAt=     4 ISR=     1 T=1 IP=      6 IndIP=     24 IndIPD=      5 C=  4.816740D-02  1.386470D-02                             NZ=T
 IS=     5 IAt=     5 ISR=     1 T=0 IP=      1 IndIP=     25 IndIPD=      0 C= -2.085517D-02  0.000000D+00                             NZ=T
 IS=     5 IAt=     5 ISR=     1 T=0 IP=      2 IndIP=     26 IndIPD=      1 C= -6.117102D-02  0.000000D+00                             NZ=T
 IS=     5 IAt=     5 ISR=     1 T=0 IP=      3 IndIP=     27 IndIPD=      2 C= -7.175926D-02  0.000000D+00                             NZ=T
 IS=     5 IAt=     5 ISR=     1 T=0 IP=      4 IndIP=     28 IndIPD=      3 C=  2.997762D-02  0.000000D+00                             NZ=T
 IS=     5 IAt=     5 ISR=     1 T=0 IP=      5 IndIP=     29 IndIPD=      4 C=  1.003763D-01  0.000000D+00                             NZ=T
 IS=     5 IAt=     5 ISR=     1 T=0 IP=      6 IndIP=     30 IndIPD=      5 C=  2.517537D-02  0.000000D+00                             NZ=T
 IS=     6 IAt=     6 ISR=     1 T=0 IP=      1 IndIP=     31 IndIPD=      0 C= -2.085517D-02  0.000000D+00                             NZ=T
 IS=     6 IAt=     6 ISR=     1 T=0 IP=      2 IndIP=     32 IndIPD=      1 C= -6.117102D-02  0.000000D+00                             NZ=T
 IS=     6 IAt=     6 ISR=     1 T=0 IP=      3 IndIP=     33 IndIPD=      2 C= -7.175926D-02  0.000000D+00                             NZ=T
 IS=     6 IAt=     6 ISR=     1 T=0 IP=      4 IndIP=     34 IndIPD=      3 C=  2.997762D-02  0.000000D+00                             NZ=T
 IS=     6 IAt=     6 ISR=     1 T=0 IP=      5 IndIP=     35 IndIPD=      4 C=  1.003763D-01  0.000000D+00                             NZ=T
 IS=     6 IAt=     6 ISR=     1 T=0 IP=      6 IndIP=     36 IndIPD=      5 C=  2.517537D-02  0.000000D+00                             NZ=T
 IS=     7 IAt=     7 ISR=     1 T=1 IP=      1 IndIP=     37 IndIPD=      0 C= -3.990167D-02 -2.131836D-01                             NZ=T
 IS=     7 IAt=     7 ISR=     1 T=1 IP=      2 IndIP=     38 IndIPD=      1 C= -1.170370D-01 -9.517738D-02                             NZ=T
 IS=     7 IAt=     7 ISR=     1 T=1 IP=      3 IndIP=     39 IndIPD=      2 C= -1.372952D-01  1.273628D-01                             NZ=T
 IS=     7 IAt=     7 ISR=     1 T=1 IP=      4 IndIP=     40 IndIPD=      3 C=  5.735542D-02  2.575035D-01                             NZ=T
 IS=     7 IAt=     7 ISR=     1 T=1 IP=      5 IndIP=     41 IndIPD=      4 C=  1.920475D-01  1.351320D-01                             NZ=T
 IS=     7 IAt=     7 ISR=     1 T=1 IP=      6 IndIP=     42 IndIPD=      5 C=  4.816740D-02  1.386470D-02                             NZ=T
 IS=     8 IAt=     8 ISR=     1 T=0 IP=      1 IndIP=     43 IndIPD=      0 C= -2.085517D-02  0.000000D+00                             NZ=T
 IS=     8 IAt=     8 ISR=     1 T=0 IP=      2 IndIP=     44 IndIPD=      1 C= -6.117102D-02  0.000000D+00                             NZ=T
 IS=     8 IAt=     8 ISR=     1 T=0 IP=      3 IndIP=     45 IndIPD=      2 C= -7.175926D-02  0.000000D+00                             NZ=T
 IS=     8 IAt=     8 ISR=     1 T=0 IP=      4 IndIP=     46 IndIPD=      3 C=  2.997762D-02  0.000000D+00                             NZ=T
 IS=     8 IAt=     8 ISR=     1 T=0 IP=      5 IndIP=     47 IndIPD=      4 C=  1.003763D-01  0.000000D+00                             NZ=T
 IS=     8 IAt=     8 ISR=     1 T=0 IP=      6 IndIP=     48 IndIPD=      5 C=  2.517537D-02  0.000000D+00                             NZ=T
 IS=     9 IAt=     9 ISR=     1 T=0 IP=      1 IndIP=     49 IndIPD=      0 C= -2.085517D-02  0.000000D+00                             NZ=T
 IS=     9 IAt=     9 ISR=     1 T=0 IP=      2 IndIP=     50 IndIPD=      1 C= -6.117102D-02  0.000000D+00                             NZ=T
 IS=     9 IAt=     9 ISR=     1 T=0 IP=      3 IndIP=     51 IndIPD=      2 C= -7.175926D-02  0.000000D+00                             NZ=T
 IS=     9 IAt=     9 ISR=     1 T=0 IP=      4 IndIP=     52 IndIPD=      3 C=  2.997762D-02  0.000000D+00                             NZ=T
 IS=     9 IAt=     9 ISR=     1 T=0 IP=      5 IndIP=     53 IndIPD=      4 C=  1.003763D-01  0.000000D+00                             NZ=T
 IS=     9 IAt=     9 ISR=     1 T=0 IP=      6 IndIP=     54 IndIPD=      5 C=  2.517537D-02  0.000000D+00                             NZ=T
 IS=    10 IAt=    10 ISR=     1 T=1 IP=      1 IndIP=     55 IndIPD=      0 C= -3.990167D-02 -2.131836D-01                             NZ=T
 IS=    10 IAt=    10 ISR=     1 T=1 IP=      2 IndIP=     56 IndIPD=      1 C= -1.170370D-01 -9.517738D-02                             NZ=T
 IS=    10 IAt=    10 ISR=     1 T=1 IP=      3 IndIP=     57 IndIPD=      2 C= -1.372952D-01  1.273628D-01                             NZ=T
 IS=    10 IAt=    10 ISR=     1 T=1 IP=      4 IndIP=     58 IndIPD=      3 C=  5.735542D-02  2.575035D-01                             NZ=T
 IS=    10 IAt=    10 ISR=     1 T=1 IP=      5 IndIP=     59 IndIPD=      4 C=  1.920475D-01  1.351320D-01                             NZ=T
 IS=    10 IAt=    10 ISR=     1 T=1 IP=      6 IndIP=     60 IndIPD=      5 C=  4.816740D-02  1.386470D-02                             NZ=T
 IS=    11 IAt=    11 ISR=     1 T=0 IP=      1 IndIP=     61 IndIPD=      0 C= -2.085517D-02  0.000000D+00                             NZ=T
 IS=    11 IAt=    11 ISR=     1 T=0 IP=      2 IndIP=     62 IndIPD=      1 C= -6.117102D-02  0.000000D+00                             NZ=T
 IS=    11 IAt=    11 ISR=     1 T=0 IP=      3 IndIP=     63 IndIPD=      2 C= -7.175926D-02  0.000000D+00                             NZ=T
 IS=    11 IAt=    11 ISR=     1 T=0 IP=      4 IndIP=     64 IndIPD=      3 C=  2.997762D-02  0.000000D+00                             NZ=T
 IS=    11 IAt=    11 ISR=     1 T=0 IP=      5 IndIP=     65 IndIPD=      4 C=  1.003763D-01  0.000000D+00                             NZ=T
 IS=    11 IAt=    11 ISR=     1 T=0 IP=      6 IndIP=     66 IndIPD=      5 C=  2.517537D-02  0.000000D+00                             NZ=T
 IS=    12 IAt=    12 ISR=     1 T=0 IP=      1 IndIP=     67 IndIPD=      0 C= -2.085517D-02  0.000000D+00                             NZ=T
 IS=    12 IAt=    12 ISR=     1 T=0 IP=      2 IndIP=     68 IndIPD=      1 C= -6.117102D-02  0.000000D+00                             NZ=T
 IS=    12 IAt=    12 ISR=     1 T=0 IP=      3 IndIP=     69 IndIPD=      2 C= -7.175926D-02  0.000000D+00                             NZ=T
 IS=    12 IAt=    12 ISR=     1 T=0 IP=      4 IndIP=     70 IndIPD=      3 C=  2.997762D-02  0.000000D+00                             NZ=T
 IS=    12 IAt=    12 ISR=     1 T=0 IP=      5 IndIP=     71 IndIPD=      4 C=  1.003763D-01  0.000000D+00                             NZ=T
 IS=    12 IAt=    12 ISR=     1 T=0 IP=      6 IndIP=     72 IndIPD=      5 C=  2.517537D-02  0.000000D+00                             NZ=T
 IExCor=    0 DFT=F Ex=HF Corr=None ExCW=0 ScaHFX=  1.000000
 ScaDFX=  1.000000  1.000000  1.000000  1.000000 ScalE2=  1.000000  1.000000
 IRadAn=      5 IRanWt=     -1 IRanGd=            0 ICorTp=0 IEmpDi=251
 Integral buffers will be    131072 words long.
 Regular integral format.
 Two-electron integral symmetry is turned off.
 Nuclear repulsion after empirical dispersion term =       75.1163852310 Hartrees.
 Do NDO integrals.
 NPDir=0 NMtPBC=     1 NCelOv=     1 NCel=       1 NClECP=     1 NCelD=      1
         NCelK=      1 NCelE2=     1 NClLst=     1 CellRange=     0.0.
 One-electron integrals computed using PRISM.
 Entering OneElI...
 Calculate overlap and kinetic energy integrals
    NBasis =  24  MinDer = 0  MaxDer = 0
 Requested accuracy = 0.1000D-12
 PrmmSu-InSpLW:  IPartL=    0 NPrtUS=    1 NPrtUL=    1 DoSpLW=F IThBeg=    0 IThEnd=    0 NThAct=    1.
 PrSmSu:  IncTry=   512 NBBP=            136 NTPThr=   100 NPartT=    1 Incr=           1 LDynOK=F GPUOK=F.
 PrsmSu:  NPrtUS=   1 ThrOK=F IAlg=2 LenDen=           0 ISkipM=0 DoSpLW=F IThBeg=    0 IThEnd=    0.
 Prism:   IPart=     0 DynPar=F LinDyn=F Incr=           1.
 PRISM was handed   104677111 working-precision words and   136 shell-pairs
 IPart=  0 NShTot=         136 NBatch=          29 AvBLen=         4.7
 PrSmSu:  NxtVal=              2.
 *** Overlap *** 
                1             2             3             4             5 
      1  0.100000D+01
      2  0.000000D+00  0.100000D+01
      3  0.000000D+00  0.000000D+00  0.100000D+01
      4  0.000000D+00  0.000000D+00  0.000000D+00  0.100000D+01
      5  0.447393D+00  0.000000D+00  0.401336D+00  0.248043D+00  0.100000D+01
      6  0.447393D+00  0.000000D+00 -0.401336D+00  0.248043D+00  0.145186D+00
      7  0.319785D+00  0.000000D+00  0.000000D+00 -0.409310D+00  0.833199D-01
      8  0.000000D+00  0.245820D+00  0.000000D+00  0.000000D+00  0.000000D+00
      9  0.000000D+00  0.000000D+00  0.245820D+00  0.000000D+00  0.574287D-01
     10  0.409310D+00  0.000000D+00  0.000000D+00 -0.330749D+00  0.117979D+00
     11  0.833199D-01  0.000000D+00 -0.574287D-01 -0.117979D+00  0.169372D-01
     12  0.833199D-01  0.000000D+00  0.574287D-01 -0.117979D+00  0.512904D-01
     13  0.714209D-02  0.000000D+00 -0.262779D-02  0.176668D-01  0.199809D-01
     14  0.000000D+00  0.548589D-02  0.000000D+00  0.000000D+00  0.000000D+00
     15  0.262779D-02  0.000000D+00  0.459038D-02  0.602051D-02  0.180640D-01
     16 -0.176668D-01  0.000000D+00  0.602051D-02 -0.349904D-01 -0.325005D-01
     17  0.111044D-02  0.000000D+00 -0.547775D-03  0.259866D-02  0.337367D-02
     18  0.371573D-01  0.000000D+00 -0.301420D-01  0.573615D-01  0.352330D-01
     19  0.101473D-01  0.000000D+00  0.703495D-02  0.232401D-01  0.641672D-01
     20  0.000000D+00  0.766329D-02  0.000000D+00  0.000000D+00  0.000000D+00
     21 -0.703495D-02  0.000000D+00  0.309742D-02 -0.150835D-01  0.328857D-02
     22 -0.232401D-01  0.000000D+00 -0.150835D-01 -0.421654D-01 -0.104696D+00
     23  0.701092D-01  0.000000D+00  0.644570D-01  0.929402D-01  0.337477D+00
     24  0.173362D-02  0.000000D+00  0.159181D-02  0.366585D-02  0.156217D-01
                6             7             8             9            10 
      6  0.100000D+01
      7  0.833199D-01  0.100000D+01
      8  0.000000D+00  0.000000D+00  0.100000D+01
      9 -0.574287D-01  0.000000D+00  0.000000D+00  0.100000D+01
     10  0.117979D+00  0.000000D+00  0.000000D+00  0.000000D+00  0.100000D+01
     11  0.512904D-01  0.447393D+00  0.000000D+00 -0.401336D+00 -0.248043D+00
     12  0.169372D-01  0.447393D+00  0.000000D+00  0.401336D+00 -0.248043D+00
     13  0.376265D-01  0.170313D-03  0.000000D+00 -0.674708D-04  0.651015D-03
     14  0.000000D+00  0.000000D+00  0.171408D-03  0.000000D+00  0.000000D+00
     15 -0.122174D-01  0.674708D-04  0.000000D+00  0.148746D-03  0.218660D-03
     16 -0.643757D-01 -0.651015D-03  0.000000D+00  0.218660D-03 -0.193841D-02
     17  0.786955D-02  0.389873D-04  0.000000D+00 -0.194205D-04  0.122257D-03
     18  0.186922D+00  0.275325D-02  0.000000D+00 -0.191371D-02  0.580072D-02
     19  0.187765D-01  0.284002D-03  0.000000D+00  0.208259D-03  0.101187D-02
     20  0.000000D+00  0.000000D+00  0.273673D-03  0.000000D+00  0.000000D+00
     21 -0.218033D-01 -0.208259D-03  0.000000D+00  0.142957D-03 -0.635107D-03
     22 -0.275777D-01 -0.101187D-02  0.000000D+00 -0.635107D-03 -0.281212D-02
     23  0.480267D-01  0.633249D-02  0.000000D+00  0.486377D-02  0.121551D-01
     24  0.314023D-02  0.776239D-04  0.000000D+00  0.703425D-04  0.221222D-03
               11            12            13            14            15 
     11  0.100000D+01
     12  0.145186D+00  0.100000D+01
     13  0.143551D-03  0.925686D-04  0.100000D+01
     14  0.000000D+00  0.000000D+00  0.000000D+00  0.100000D+01
     15 -0.385448D-04  0.731344D-04  0.000000D+00  0.000000D+00  0.100000D+01
     16 -0.405438D-03 -0.262672D-03  0.000000D+00  0.000000D+00  0.000000D+00
     17  0.334655D-04  0.174601D-04  0.447393D+00  0.000000D+00 -0.174583D+00
     18  0.210517D-02  0.729876D-03  0.447393D+00  0.000000D+00 -0.313966D+00
     19  0.119119D-03  0.274978D-03  0.319785D+00  0.000000D+00  0.403092D+00
     20  0.000000D+00  0.000000D+00  0.000000D+00  0.245820D+00  0.000000D+00
     21 -0.121064D-03  0.110526D-04 -0.403092D+00  0.000000D+00 -0.313363D+00
     22 -0.321319D-03 -0.738372D-03  0.710759D-01  0.000000D+00  0.985992D-01
     23  0.151527D-02  0.496552D-02  0.833199D-01  0.000000D+00  0.106215D+00
     24  0.254555D-04  0.867407D-04  0.833199D-01  0.000000D+00  0.126159D+00
               16            17            18            19            20 
     16  0.100000D+01
     17  0.438311D+00  0.100000D+01
     18 -0.352166D+00  0.145186D+00  0.100000D+01
     19 -0.710759D-01  0.833199D-01  0.833199D-01  0.100000D+01
     20  0.000000D+00  0.000000D+00  0.000000D+00  0.000000D+00  0.100000D+01
     21  0.985992D-01 -0.106215D+00 -0.126159D+00  0.000000D+00  0.000000D+00
     22  0.228435D+00  0.770431D-01 -0.360694D-01  0.000000D+00  0.000000D+00
     23 -0.770431D-01  0.169372D-01  0.512904D-01  0.447393D+00  0.000000D+00
     24  0.360694D-01  0.512904D-01  0.169372D-01  0.447393D+00  0.000000D+00
               21            22            23            24 
     21  0.100000D+01
     22  0.000000D+00  0.100000D+01
     23  0.174583D+00 -0.438311D+00  0.100000D+01
     24  0.313966D+00  0.352166D+00  0.145186D+00  0.100000D+01
 *** Kinetic Energy *** 
                1             2             3             4             5 
      1  0.628545D+00
      2  0.000000D+00  0.145980D+01
      3  0.000000D+00  0.000000D+00  0.145980D+01
      4  0.000000D+00  0.000000D+00  0.000000D+00  0.145980D+01
      5  0.935079D-01  0.000000D+00  0.225866D+00  0.139595D+00  0.793812D+00
      6  0.935079D-01  0.000000D+00 -0.225866D+00  0.139595D+00 -0.102872D-01
      7  0.329050D-01  0.000000D+00  0.000000D+00 -0.172869D+00 -0.162842D-01
      8  0.000000D+00  0.989468D-01  0.000000D+00  0.000000D+00  0.000000D+00
      9  0.000000D+00  0.000000D+00  0.989468D-01  0.000000D+00 -0.986775D-03
     10  0.172869D+00  0.000000D+00  0.000000D+00 -0.358904D+00 -0.202719D-02
     11 -0.162842D-01  0.000000D+00  0.986775D-03  0.202719D-02 -0.488163D-02
     12 -0.162842D-01  0.000000D+00 -0.986775D-03  0.202719D-02 -0.102930D-01
     13 -0.457601D-02  0.000000D+00  0.111482D-02 -0.749498D-02 -0.717871D-02
     14  0.000000D+00 -0.195311D-02  0.000000D+00  0.000000D+00  0.000000D+00
     15 -0.111482D-02  0.000000D+00 -0.173446D-02 -0.146998D-02 -0.409544D-02
     16  0.749498D-02  0.000000D+00 -0.146998D-02  0.792964D-02  0.736844D-02
     17 -0.647247D-03  0.000000D+00  0.251680D-03 -0.119397D-02 -0.134901D-02
     18 -0.111016D-01  0.000000D+00  0.455771D-02 -0.867351D-02 -0.824242D-02
     19 -0.604551D-02  0.000000D+00 -0.268521D-02 -0.887067D-02 -0.149326D-01
     20  0.000000D+00 -0.243491D-02  0.000000D+00  0.000000D+00  0.000000D+00
     21  0.268521D-02  0.000000D+00 -0.152094D-02  0.301935D-02 -0.216729D-03
     22  0.887067D-02  0.000000D+00  0.301935D-02  0.753960D-02  0.689987D-02
     23 -0.154622D-01  0.000000D+00 -0.322450D-02 -0.464940D-02  0.352030D-01
     24 -0.948077D-03  0.000000D+00 -0.678944D-03 -0.156357D-02 -0.458929D-02
                6             7             8             9            10 
      6  0.793812D+00
      7 -0.162842D-01  0.628545D+00
      8  0.000000D+00  0.000000D+00  0.145980D+01
      9  0.986775D-03  0.000000D+00  0.000000D+00  0.145980D+01
     10 -0.202719D-02  0.000000D+00  0.000000D+00  0.000000D+00  0.145980D+01
     11 -0.102930D-01  0.935079D-01  0.000000D+00 -0.225866D+00 -0.139595D+00
     12 -0.488163D-02  0.935079D-01  0.000000D+00  0.225866D+00 -0.139595D+00
     13 -0.111905D-01 -0.185404D-03  0.000000D+00  0.556856D-04 -0.537302D-03
     14  0.000000D+00  0.000000D+00 -0.122703D-03  0.000000D+00  0.000000D+00
     15  0.182612D-02 -0.556856D-04  0.000000D+00 -0.108760D-03 -0.134530D-03
     16  0.962213D-02  0.537302D-03  0.000000D+00 -0.134530D-03  0.117535D-02
     17 -0.267889D-02 -0.346806D-04  0.000000D+00  0.139442D-04 -0.877821D-04
     18 -0.516795D-02 -0.140731D-02  0.000000D+00  0.751295D-03 -0.227728D-02
     19 -0.684805D-02 -0.292333D-03  0.000000D+00 -0.160703D-03 -0.780809D-03
     20  0.000000D+00  0.000000D+00 -0.182961D-03  0.000000D+00  0.000000D+00
     21  0.508675D-02  0.160703D-03  0.000000D+00 -0.108853D-03  0.360068D-03
     22  0.643394D-02  0.780809D-03  0.000000D+00  0.360068D-03  0.156650D-02
     23 -0.993655D-02 -0.284694D-02  0.000000D+00 -0.160522D-02 -0.401162D-02
     24 -0.127186D-02 -0.639358D-04  0.000000D+00 -0.467293D-04 -0.146960D-03
               11            12            13            14            15 
     11  0.793812D+00
     12 -0.102872D-01  0.793812D+00
     13 -0.109888D-03 -0.746961D-04  0.628545D+00
     14  0.000000D+00  0.000000D+00  0.000000D+00  0.145980D+01
     15  0.237549D-04 -0.475783D-04  0.000000D+00  0.000000D+00  0.145980D+01
     16  0.249869D-03  0.170884D-03  0.000000D+00  0.000000D+00  0.000000D+00
     17 -0.238537D-04 -0.131447D-04  0.935079D-01  0.000000D+00 -0.982530D-01
     18 -0.913626D-03 -0.372809D-03  0.935079D-01  0.000000D+00 -0.176695D+00
     19 -0.932779D-04 -0.193898D-03  0.329050D-01  0.000000D+00  0.170242D+00
     20  0.000000D+00  0.000000D+00  0.000000D+00  0.989468D-01  0.000000D+00
     21  0.763746D-04 -0.625244D-05 -0.170242D+00  0.000000D+00 -0.345098D+00
     22  0.202708D-03  0.417696D-03  0.300183D-01  0.000000D+00  0.782971D-01
     23 -0.693917D-03 -0.184905D-02 -0.162842D-01  0.000000D+00 -0.182504D-02
     24 -0.185719D-04 -0.567123D-04 -0.162842D-01  0.000000D+00 -0.216774D-02
               16            17            18            19            20 
     16  0.145980D+01
     17  0.246675D+00  0.793812D+00
     18 -0.198194D+00 -0.102872D-01  0.793812D+00
     19 -0.300183D-01 -0.162842D-01 -0.162842D-01  0.628545D+00
     20  0.000000D+00  0.000000D+00  0.000000D+00  0.000000D+00  0.145980D+01
     21  0.782971D-01  0.182504D-02  0.216774D-02  0.000000D+00  0.000000D+00
     22  0.851409D-01 -0.132380D-02  0.619765D-03  0.000000D+00  0.000000D+00
     23  0.132380D-02 -0.488163D-02 -0.102930D-01  0.935079D-01  0.000000D+00
     24 -0.619765D-03 -0.102930D-01 -0.488163D-02  0.935079D-01  0.000000D+00
               21            22            23            24 
     21  0.145980D+01
     22  0.000000D+00  0.145980D+01
     23  0.982530D-01 -0.246675D+00  0.793812D+00
     24  0.176695D+00  0.198194D+00 -0.102872D-01  0.793812D+00
 Entering OneElI...
 Calculate potential energy integrals
    NBasis =  24  MinDer = 0  MaxDer = 0
 Requested accuracy = 0.1000D-12
 PrmmSu-InSpLW:  IPartL=    0 NPrtUS=    1 NPrtUL=    1 DoSpLW=F IThBeg=    0 IThEnd=    0 NThAct=    1.
 PrSmSu:  IncTry=   512 NBBP=            144 NTPThr=   100 NPartT=    1 Incr=           1 LDynOK=F GPUOK=F.
 PrsmSu:  NPrtUS=   1 ThrOK=F IAlg=2 LenDen=           0 ISkipM=0 DoSpLW=F IThBeg=    0 IThEnd=    0.
 Prism:   IPart=     0 DynPar=F LinDyn=F Incr=           1.
 PRISM was handed   104735930 working-precision words and    12 shell-pairs
 IPart=  0 NShTot=         144 NBatch=          12 AvBLen=        12.0
 PrSmSu:  NxtVal=              2.
 NBasis=    24 RedAO= F EigKep=  0.00D+00  NBF=    24
 NBsUse=    24 1.00D-04 EigRej=  0.00D+00 NBFU=    24
 DipPsm:  J= 1 NJ= 4 MaxL=1 MMat= 4 MaxMat= 4.
 DipInt: DoE/N= T F RetVal/Mat= F T Init=T NMatP=  4 IDeriv=0 Min/MaxMlt=  0  1
 Multipole matrices IBuc=  518 IX=    1 IJ=           1:
                1             2             3             4             5 
      1  0.000000D+00
      2  0.782574D+00  0.000000D+00
      3  0.000000D+00  0.000000D+00  0.000000D+00
      4  0.000000D+00  0.000000D+00  0.000000D+00  0.000000D+00
      5  0.000000D+00  0.000000D+00  0.000000D+00  0.000000D+00  0.000000D+00
      6  0.000000D+00  0.000000D+00  0.000000D+00  0.000000D+00  0.000000D+00
      7  0.000000D+00  0.000000D+00  0.000000D+00  0.000000D+00  0.000000D+00
      8  0.000000D+00  0.000000D+00  0.000000D+00  0.000000D+00  0.000000D+00
      9  0.000000D+00  0.000000D+00  0.000000D+00  0.000000D+00  0.000000D+00
     10  0.000000D+00  0.000000D+00  0.000000D+00  0.000000D+00  0.000000D+00
     11  0.000000D+00  0.000000D+00  0.000000D+00  0.000000D+00  0.000000D+00
     12  0.000000D+00  0.000000D+00  0.000000D+00  0.000000D+00  0.000000D+00
     13  0.000000D+00  0.000000D+00  0.000000D+00  0.000000D+00  0.000000D+00
     14  0.000000D+00  0.000000D+00  0.000000D+00  0.000000D+00  0.000000D+00
     15  0.000000D+00  0.000000D+00  0.000000D+00  0.000000D+00  0.000000D+00
     16  0.000000D+00  0.000000D+00  0.000000D+00  0.000000D+00  0.000000D+00
     17  0.000000D+00  0.000000D+00  0.000000D+00  0.000000D+00  0.000000D+00
     18  0.000000D+00  0.000000D+00  0.000000D+00  0.000000D+00  0.000000D+00
     19  0.000000D+00  0.000000D+00  0.000000D+00  0.000000D+00  0.000000D+00
     20  0.000000D+00  0.000000D+00  0.000000D+00  0.000000D+00  0.000000D+00
     21  0.000000D+00  0.000000D+00  0.000000D+00  0.000000D+00  0.000000D+00
     22  0.000000D+00  0.000000D+00  0.000000D+00  0.000000D+00  0.000000D+00
     23  0.000000D+00  0.000000D+00  0.000000D+00  0.000000D+00  0.000000D+00
     24  0.000000D+00  0.000000D+00  0.000000D+00  0.000000D+00  0.000000D+00
                6             7             8             9            10 
      6  0.000000D+00
      7  0.000000D+00  0.000000D+00
      8  0.000000D+00  0.782574D+00  0.000000D+00
      9  0.000000D+00  0.000000D+00  0.000000D+00  0.000000D+00
     10  0.000000D+00  0.000000D+00  0.000000D+00  0.000000D+00  0.000000D+00
     11  0.000000D+00  0.000000D+00  0.000000D+00  0.000000D+00  0.000000D+00
     12  0.000000D+00  0.000000D+00  0.000000D+00  0.000000D+00  0.000000D+00
     13  0.000000D+00  0.000000D+00  0.000000D+00  0.000000D+00  0.000000D+00
     14  0.000000D+00  0.000000D+00  0.000000D+00  0.000000D+00  0.000000D+00
     15  0.000000D+00  0.000000D+00  0.000000D+00  0.000000D+00  0.000000D+00
     16  0.000000D+00  0.000000D+00  0.000000D+00  0.000000D+00  0.000000D+00
     17  0.000000D+00  0.000000D+00  0.000000D+00  0.000000D+00  0.000000D+00
     18  0.000000D+00  0.000000D+00  0.000000D+00  0.000000D+00  0.000000D+00
     19  0.000000D+00  0.000000D+00  0.000000D+00  0.000000D+00  0.000000D+00
     20  0.000000D+00  0.000000D+00  0.000000D+00  0.000000D+00  0.000000D+00
     21  0.000000D+00  0.000000D+00  0.000000D+00  0.000000D+00  0.000000D+00
     22  0.000000D+00  0.000000D+00  0.000000D+00  0.000000D+00  0.000000D+00
     23  0.000000D+00  0.000000D+00  0.000000D+00  0.000000D+00  0.000000D+00
     24  0.000000D+00  0.000000D+00  0.000000D+00  0.000000D+00  0.000000D+00
               11            12            13            14            15 
     11  0.000000D+00
     12  0.000000D+00  0.000000D+00
     13  0.000000D+00  0.000000D+00  0.000000D+00
     14  0.000000D+00  0.000000D+00  0.782574D+00  0.000000D+00
     15  0.000000D+00  0.000000D+00  0.000000D+00  0.000000D+00  0.000000D+00
     16  0.000000D+00  0.000000D+00  0.000000D+00  0.000000D+00  0.000000D+00
     17  0.000000D+00  0.000000D+00  0.000000D+00  0.000000D+00  0.000000D+00
     18  0.000000D+00  0.000000D+00  0.000000D+00  0.000000D+00  0.000000D+00
     19  0.000000D+00  0.000000D+00  0.000000D+00  0.000000D+00  0.000000D+00
     20  0.000000D+00  0.000000D+00  0.000000D+00  0.000000D+00  0.000000D+00
     21  0.000000D+00  0.000000D+00  0.000000D+00  0.000000D+00  0.000000D+00
     22  0.000000D+00  0.000000D+00  0.000000D+00  0.000000D+00  0.000000D+00
     23  0.000000D+00  0.000000D+00  0.000000D+00  0.000000D+00  0.000000D+00
     24  0.000000D+00  0.000000D+00  0.000000D+00  0.000000D+00  0.000000D+00
               16            17            18            19            20 
     16  0.000000D+00
     17  0.000000D+00  0.000000D+00
     18  0.000000D+00  0.000000D+00  0.000000D+00
     19  0.000000D+00  0.000000D+00  0.000000D+00  0.000000D+00
     20  0.000000D+00  0.000000D+00  0.000000D+00  0.782574D+00  0.000000D+00
     21  0.000000D+00  0.000000D+00  0.000000D+00  0.000000D+00  0.000000D+00
     22  0.000000D+00  0.000000D+00  0.000000D+00  0.000000D+00  0.000000D+00
     23  0.000000D+00  0.000000D+00  0.000000D+00  0.000000D+00  0.000000D+00
     24  0.000000D+00  0.000000D+00  0.000000D+00  0.000000D+00  0.000000D+00
               21            22            23            24 
     21  0.000000D+00
     22  0.000000D+00  0.000000D+00
     23  0.000000D+00  0.000000D+00  0.000000D+00
     24  0.000000D+00  0.000000D+00  0.000000D+00  0.000000D+00
 Multipole matrices IBuc=  518 IX=    2 IJ=           1:
                1             2             3             4             5 
      1  0.000000D+00
      2  0.000000D+00  0.000000D+00
      3  0.782574D+00  0.000000D+00  0.000000D+00
      4  0.000000D+00  0.000000D+00  0.000000D+00  0.000000D+00
      5  0.000000D+00  0.000000D+00  0.000000D+00  0.000000D+00  0.174708D+01
      6  0.000000D+00  0.000000D+00  0.000000D+00  0.000000D+00  0.000000D+00
      7  0.000000D+00  0.000000D+00  0.000000D+00  0.000000D+00  0.000000D+00
      8  0.000000D+00  0.000000D+00  0.000000D+00  0.000000D+00  0.000000D+00
      9  0.000000D+00  0.000000D+00  0.000000D+00  0.000000D+00  0.000000D+00
     10  0.000000D+00  0.000000D+00  0.000000D+00  0.000000D+00  0.000000D+00
     11  0.000000D+00  0.000000D+00  0.000000D+00  0.000000D+00  0.000000D+00
     12  0.000000D+00  0.000000D+00  0.000000D+00  0.000000D+00  0.000000D+00
     13  0.000000D+00  0.000000D+00  0.000000D+00  0.000000D+00  0.000000D+00
     14  0.000000D+00  0.000000D+00  0.000000D+00  0.000000D+00  0.000000D+00
     15  0.000000D+00  0.000000D+00  0.000000D+00  0.000000D+00  0.000000D+00
     16  0.000000D+00  0.000000D+00  0.000000D+00  0.000000D+00  0.000000D+00
     17  0.000000D+00  0.000000D+00  0.000000D+00  0.000000D+00  0.000000D+00
     18  0.000000D+00  0.000000D+00  0.000000D+00  0.000000D+00  0.000000D+00
     19  0.000000D+00  0.000000D+00  0.000000D+00  0.000000D+00  0.000000D+00
     20  0.000000D+00  0.000000D+00  0.000000D+00  0.000000D+00  0.000000D+00
     21  0.000000D+00  0.000000D+00  0.000000D+00  0.000000D+00  0.000000D+00
     22  0.000000D+00  0.000000D+00  0.000000D+00  0.000000D+00  0.000000D+00
     23  0.000000D+00  0.000000D+00  0.000000D+00  0.000000D+00  0.000000D+00
     24  0.000000D+00  0.000000D+00  0.000000D+00  0.000000D+00  0.000000D+00
                6             7             8             9            10 
      6 -0.174708D+01
      7  0.000000D+00  0.000000D+00
      8  0.000000D+00  0.000000D+00  0.000000D+00
      9  0.000000D+00  0.782574D+00  0.000000D+00  0.000000D+00
     10  0.000000D+00  0.000000D+00  0.000000D+00  0.000000D+00  0.000000D+00
     11  0.000000D+00  0.000000D+00  0.000000D+00  0.000000D+00  0.000000D+00
     12  0.000000D+00  0.000000D+00  0.000000D+00  0.000000D+00  0.000000D+00
     13  0.000000D+00  0.000000D+00  0.000000D+00  0.000000D+00  0.000000D+00
     14  0.000000D+00  0.000000D+00  0.000000D+00  0.000000D+00  0.000000D+00
     15  0.000000D+00  0.000000D+00  0.000000D+00  0.000000D+00  0.000000D+00
     16  0.000000D+00  0.000000D+00  0.000000D+00  0.000000D+00  0.000000D+00
     17  0.000000D+00  0.000000D+00  0.000000D+00  0.000000D+00  0.000000D+00
     18  0.000000D+00  0.000000D+00  0.000000D+00  0.000000D+00  0.000000D+00
     19  0.000000D+00  0.000000D+00  0.000000D+00  0.000000D+00  0.000000D+00
     20  0.000000D+00  0.000000D+00  0.000000D+00  0.000000D+00  0.000000D+00
     21  0.000000D+00  0.000000D+00  0.000000D+00  0.000000D+00  0.000000D+00
     22  0.000000D+00  0.000000D+00  0.000000D+00  0.000000D+00  0.000000D+00
     23  0.000000D+00  0.000000D+00  0.000000D+00  0.000000D+00  0.000000D+00
     24  0.000000D+00  0.000000D+00  0.000000D+00  0.000000D+00  0.000000D+00
               11            12            13            14            15 
     11 -0.174708D+01
     12  0.000000D+00  0.174708D+01
     13  0.000000D+00  0.000000D+00 -0.857675D+00
     14  0.000000D+00  0.000000D+00  0.000000D+00 -0.857675D+00
     15  0.000000D+00  0.000000D+00  0.782574D+00  0.000000D+00 -0.857675D+00
     16  0.000000D+00  0.000000D+00  0.000000D+00  0.000000D+00  0.000000D+00
     17  0.000000D+00  0.000000D+00  0.000000D+00  0.000000D+00  0.000000D+00
     18  0.000000D+00  0.000000D+00  0.000000D+00  0.000000D+00  0.000000D+00
     19  0.000000D+00  0.000000D+00  0.000000D+00  0.000000D+00  0.000000D+00
     20  0.000000D+00  0.000000D+00  0.000000D+00  0.000000D+00  0.000000D+00
     21  0.000000D+00  0.000000D+00  0.000000D+00  0.000000D+00  0.000000D+00
     22  0.000000D+00  0.000000D+00  0.000000D+00  0.000000D+00  0.000000D+00
     23  0.000000D+00  0.000000D+00  0.000000D+00  0.000000D+00  0.000000D+00
     24  0.000000D+00  0.000000D+00  0.000000D+00  0.000000D+00  0.000000D+00
               16            17            18            19            20 
     16 -0.857675D+00
     17  0.000000D+00 -0.161767D+01
     18  0.000000D+00  0.000000D+00 -0.222442D+01
     19  0.000000D+00  0.000000D+00  0.000000D+00  0.161357D+01
     20  0.000000D+00  0.000000D+00  0.000000D+00  0.000000D+00  0.161357D+01
     21  0.000000D+00  0.000000D+00  0.000000D+00  0.782574D+00  0.000000D+00
     22  0.000000D+00  0.000000D+00  0.000000D+00  0.000000D+00  0.000000D+00
     23  0.000000D+00  0.000000D+00  0.000000D+00  0.000000D+00  0.000000D+00
     24  0.000000D+00  0.000000D+00  0.000000D+00  0.000000D+00  0.000000D+00
               21            22            23            24 
     21  0.161357D+01
     22  0.000000D+00  0.161357D+01
     23  0.000000D+00  0.000000D+00  0.237356D+01
     24  0.000000D+00  0.000000D+00  0.000000D+00  0.298031D+01
 Multipole matrices IBuc=  518 IX=    3 IJ=           1:
                1             2             3             4             5 
      1  0.125468D+01
      2  0.000000D+00  0.125468D+01
      3  0.000000D+00  0.000000D+00  0.125468D+01
      4  0.782574D+00  0.000000D+00  0.000000D+00  0.125468D+01
      5  0.000000D+00  0.000000D+00  0.000000D+00  0.000000D+00  0.233445D+01
      6  0.000000D+00  0.000000D+00  0.000000D+00  0.000000D+00  0.000000D+00
      7  0.000000D+00  0.000000D+00  0.000000D+00  0.000000D+00  0.000000D+00
      8  0.000000D+00  0.000000D+00  0.000000D+00  0.000000D+00  0.000000D+00
      9  0.000000D+00  0.000000D+00  0.000000D+00  0.000000D+00  0.000000D+00
     10  0.000000D+00  0.000000D+00  0.000000D+00  0.000000D+00  0.000000D+00
     11  0.000000D+00  0.000000D+00  0.000000D+00  0.000000D+00  0.000000D+00
     12  0.000000D+00  0.000000D+00  0.000000D+00  0.000000D+00  0.000000D+00
     13  0.000000D+00  0.000000D+00  0.000000D+00  0.000000D+00  0.000000D+00
     14  0.000000D+00  0.000000D+00  0.000000D+00  0.000000D+00  0.000000D+00
     15  0.000000D+00  0.000000D+00  0.000000D+00  0.000000D+00  0.000000D+00
     16  0.000000D+00  0.000000D+00  0.000000D+00  0.000000D+00  0.000000D+00
     17  0.000000D+00  0.000000D+00  0.000000D+00  0.000000D+00  0.000000D+00
     18  0.000000D+00  0.000000D+00  0.000000D+00  0.000000D+00  0.000000D+00
     19  0.000000D+00  0.000000D+00  0.000000D+00  0.000000D+00  0.000000D+00
     20  0.000000D+00  0.000000D+00  0.000000D+00  0.000000D+00  0.000000D+00
     21  0.000000D+00  0.000000D+00  0.000000D+00  0.000000D+00  0.000000D+00
     22  0.000000D+00  0.000000D+00  0.000000D+00  0.000000D+00  0.000000D+00
     23  0.000000D+00  0.000000D+00  0.000000D+00  0.000000D+00  0.000000D+00
     24  0.000000D+00  0.000000D+00  0.000000D+00  0.000000D+00  0.000000D+00
                6             7             8             9            10 
      6  0.233445D+01
      7  0.000000D+00 -0.125468D+01
      8  0.000000D+00  0.000000D+00 -0.125468D+01
      9  0.000000D+00  0.000000D+00  0.000000D+00 -0.125468D+01
     10  0.000000D+00  0.782574D+00  0.000000D+00  0.000000D+00 -0.125468D+01
     11  0.000000D+00  0.000000D+00  0.000000D+00  0.000000D+00  0.000000D+00
     12  0.000000D+00  0.000000D+00  0.000000D+00  0.000000D+00  0.000000D+00
     13  0.000000D+00  0.000000D+00  0.000000D+00  0.000000D+00  0.000000D+00
     14  0.000000D+00  0.000000D+00  0.000000D+00  0.000000D+00  0.000000D+00
     15  0.000000D+00  0.000000D+00  0.000000D+00  0.000000D+00  0.000000D+00
     16  0.000000D+00  0.000000D+00  0.000000D+00  0.000000D+00  0.000000D+00
     17  0.000000D+00  0.000000D+00  0.000000D+00  0.000000D+00  0.000000D+00
     18  0.000000D+00  0.000000D+00  0.000000D+00  0.000000D+00  0.000000D+00
     19  0.000000D+00  0.000000D+00  0.000000D+00  0.000000D+00  0.000000D+00
     20  0.000000D+00  0.000000D+00  0.000000D+00  0.000000D+00  0.000000D+00
     21  0.000000D+00  0.000000D+00  0.000000D+00  0.000000D+00  0.000000D+00
     22  0.000000D+00  0.000000D+00  0.000000D+00  0.000000D+00  0.000000D+00
     23  0.000000D+00  0.000000D+00  0.000000D+00  0.000000D+00  0.000000D+00
     24  0.000000D+00  0.000000D+00  0.000000D+00  0.000000D+00  0.000000D+00
               11            12            13            14            15 
     11 -0.233445D+01
     12  0.000000D+00 -0.233445D+01
     13  0.000000D+00  0.000000D+00  0.702089D+01
     14  0.000000D+00  0.000000D+00  0.000000D+00  0.702089D+01
     15  0.000000D+00  0.000000D+00  0.000000D+00  0.000000D+00  0.702089D+01
     16  0.000000D+00  0.000000D+00  0.782574D+00  0.000000D+00  0.000000D+00
     17  0.000000D+00  0.000000D+00  0.000000D+00  0.000000D+00  0.000000D+00
     18  0.000000D+00  0.000000D+00  0.000000D+00  0.000000D+00  0.000000D+00
     19  0.000000D+00  0.000000D+00  0.000000D+00  0.000000D+00  0.000000D+00
     20  0.000000D+00  0.000000D+00  0.000000D+00  0.000000D+00  0.000000D+00
     21  0.000000D+00  0.000000D+00  0.000000D+00  0.000000D+00  0.000000D+00
     22  0.000000D+00  0.000000D+00  0.000000D+00  0.000000D+00  0.000000D+00
     23  0.000000D+00  0.000000D+00  0.000000D+00  0.000000D+00  0.000000D+00
     24  0.000000D+00  0.000000D+00  0.000000D+00  0.000000D+00  0.000000D+00
               16            17            18            19            20 
     16  0.702089D+01
     17  0.000000D+00  0.892893D+01
     18  0.000000D+00  0.000000D+00  0.548785D+01
     19  0.000000D+00  0.000000D+00  0.000000D+00  0.658514D+01
     20  0.000000D+00  0.000000D+00  0.000000D+00  0.000000D+00  0.658514D+01
     21  0.000000D+00  0.000000D+00  0.000000D+00  0.000000D+00  0.000000D+00
     22  0.000000D+00  0.000000D+00  0.000000D+00  0.782574D+00  0.000000D+00
     23  0.000000D+00  0.000000D+00  0.000000D+00  0.000000D+00  0.000000D+00
     24  0.000000D+00  0.000000D+00  0.000000D+00  0.000000D+00  0.000000D+00
               21            22            23            24 
     21  0.658514D+01
     22  0.000000D+00  0.658514D+01
     23  0.000000D+00  0.000000D+00  0.467710D+01
     24  0.000000D+00  0.000000D+00  0.000000D+00  0.811818D+01
 Fermi contact integrals: 
                 1             2             3             4             5 
      1   0.333646D-02  0.948660D-01  0.948660D-01  0.584533D-01  0.830435D-02
      2   0.000000D+00  0.000000D+00  0.000000D+00  0.000000D+00  0.000000D+00
      3   0.000000D+00  0.139805D+00 -0.139805D+00  0.000000D+00 -0.629644D-02
      4   0.000000D+00  0.864057D-01  0.864057D-01 -0.101243D+00 -0.129352D-01
      5   0.846980D-01  0.174385D-02  0.399139D-01  0.278277D-01  0.583995D-02
      6   0.846980D-01  0.399139D-01  0.174385D-02  0.278277D-01  0.162226D-01
      7   0.584533D-01  0.830435D-02  0.830435D-02  0.333646D-02  0.948660D-01
      8   0.000000D+00  0.000000D+00  0.000000D+00  0.000000D+00  0.000000D+00
      9   0.000000D+00  0.629644D-02 -0.629644D-02  0.000000D+00 -0.139805D+00
     10   0.101243D+00  0.129352D-01  0.129352D-01  0.000000D+00 -0.864057D-01
     11   0.278277D-01  0.583995D-02  0.162226D-01  0.846980D-01  0.174385D-02
     12   0.278277D-01  0.162226D-01  0.583995D-02  0.846980D-01  0.399139D-01
     13   0.492647D-03  0.105168D-02  0.262737D-02  0.385866D-05  0.000000D+00
     14   0.000000D+00  0.000000D+00  0.000000D+00  0.000000D+00  0.000000D+00
     15   0.129931D-03  0.889877D-03 -0.843354D-03  0.000000D+00  0.000000D+00
     16  -0.873534D-03 -0.160105D-02 -0.444377D-02 -0.919860D-05  0.000000D+00
     17   0.842640D-03  0.130502D-02  0.285482D-02  0.571693D-04  0.174328D-04
     18   0.147569D-01  0.115252D-01  0.488369D-01  0.175633D-02  0.847767D-03
     19   0.754439D-03  0.568214D-02  0.960587D-03  0.779265D-05  0.000000D+00
     20   0.000000D+00  0.000000D+00  0.000000D+00  0.000000D+00  0.000000D+00
     21  -0.384765D-03  0.308293D-03 -0.104029D-02 -0.362468D-05  0.000000D+00
     22  -0.127108D-02 -0.981494D-02 -0.131580D-02 -0.176112D-04  0.000000D+00
     23   0.243579D-01  0.739791D-01  0.152873D-01  0.347372D-02  0.628282D-03
     24   0.120670D-02  0.541498D-02  0.122197D-02  0.999339D-04  0.132812D-04
                 6             7             8             9            10 
      1   0.830435D-02  0.492647D-03  0.110432D-04  0.258024D-02  0.754439D-03
      2   0.000000D+00  0.000000D+00  0.000000D+00  0.000000D+00  0.000000D+00
      3   0.629644D-02 -0.129931D-03 -0.515267D-05 -0.206626D-02  0.384765D-03
      4  -0.129352D-01  0.873534D-03  0.244444D-04  0.393217D-02  0.127108D-02
      5   0.162226D-01  0.893062D-02  0.130502D-02  0.115252D-01  0.227362D-01
      6   0.583995D-02  0.149060D-01  0.285482D-02  0.488369D-01  0.848831D-02
      7   0.948660D-01  0.385866D-05  0.000000D+00  0.503541D-04  0.779265D-05
      8   0.000000D+00  0.000000D+00  0.000000D+00  0.000000D+00  0.000000D+00
      9   0.139805D+00  0.000000D+00  0.000000D+00 -0.325168D-04  0.362468D-05
     10  -0.864057D-01  0.919860D-05  0.000000D+00  0.985628D-04  0.176112D-04
     11   0.399139D-01  0.163904D-03  0.174328D-04  0.847767D-03  0.141100D-03
     12   0.174385D-02  0.115184D-03  0.909692D-05  0.322900D-03  0.275791D-03
     13   0.000000D+00  0.333646D-02  0.948660D-01  0.948660D-01  0.584533D-01
     14   0.000000D+00  0.000000D+00  0.000000D+00  0.000000D+00  0.000000D+00
     15   0.000000D+00  0.000000D+00 -0.608161D-01 -0.109370D+00  0.997047D-01
     16   0.000000D+00  0.000000D+00  0.152685D+00 -0.122677D+00 -0.175806D-01
     17   0.909692D-05  0.846980D-01  0.174385D-02  0.399139D-01  0.278277D-01
     18   0.322900D-03  0.846980D-01  0.399139D-01  0.174385D-02  0.278277D-01
     19   0.000000D+00  0.584533D-01  0.830435D-02  0.830435D-02  0.333646D-02
     20   0.000000D+00  0.000000D+00  0.000000D+00  0.000000D+00  0.000000D+00
     21   0.000000D+00 -0.997047D-01 -0.116453D-01 -0.138320D-01  0.000000D+00
     22  -0.241523D-05  0.175806D-01  0.844695D-02 -0.395462D-02  0.000000D+00
     23   0.186270D-02  0.278277D-01  0.583995D-02  0.162226D-01  0.846980D-01
     24   0.441575D-04  0.278277D-01  0.162226D-01  0.583995D-02  0.846980D-01
                11            12 
      1   0.646117D-02  0.234680D-04
      2   0.000000D+00  0.000000D+00
      3   0.636925D-02  0.202164D-04
      4   0.918379D-02  0.465573D-04
      5   0.739791D-01  0.541498D-02
      6   0.152873D-01  0.122197D-02
      7   0.188723D-03  0.000000D+00
      8   0.000000D+00  0.000000D+00
      9   0.132686D-03  0.000000D+00
     10   0.331598D-03  0.000000D+00
     11   0.628282D-03  0.132812D-04
     12   0.186270D-02  0.441575D-04
     13   0.830435D-02  0.830435D-02
     14   0.000000D+00  0.000000D+00
     15   0.116453D-01  0.138320D-01
     16  -0.844695D-02  0.395462D-02
     17   0.583995D-02  0.162226D-01
     18   0.162226D-01  0.583995D-02
     19   0.948660D-01  0.948660D-01
     20   0.000000D+00  0.000000D+00
     21   0.608161D-01  0.109370D+00
     22  -0.152685D+00  0.122677D+00
     23   0.174385D-02  0.399139D-01
     24   0.399139D-01  0.174385D-02
 Simple Huckel Guess.
 Keep J ints in memory in canonical form, NReq=860499.
 Overlap will be assumed to be unity.
 Requested convergence on RMS density matrix=1.00D-08 within 128 cycles.
 Requested convergence on MAX density matrix=1.00D-06.
 Requested convergence on             energy=1.00D-06.
 No special actions if energy rises.
 SCF Done:  E(RPM7) =  0.581562165680E-01 A.U. after   11 cycles
            NFock= 10  Conv=0.59D-08     -V/T= 1.0017

 **********************************************************************

            Population analysis using the SCF Density.

 **********************************************************************

 Alpha  occ. eigenvalues --   -1.02423  -0.96732  -0.76179  -0.73628  -0.60868
 Alpha  occ. eigenvalues --   -0.59439  -0.53463  -0.49875  -0.47239  -0.41288
 Alpha  occ. eigenvalues --   -0.39820  -0.39418
 Alpha virt. eigenvalues --    0.03651   0.03713   0.18101   0.19323   0.20759
 Alpha virt. eigenvalues --    0.21050   0.22173   0.22843   0.23463   0.23701
 Alpha virt. eigenvalues --    0.24678   0.25896
          Condensed to atoms (all electrons):
               1          2          3          4          5          6
     1  C    4.301605   0.000000   0.000000   0.000000   0.000000   0.000000
     2  H    0.000000   0.845473   0.000000   0.000000   0.000000   0.000000
     3  H    0.000000   0.000000   0.854061   0.000000   0.000000   0.000000
     4  C    0.000000   0.000000   0.000000   4.281229   0.000000   0.000000
     5  H    0.000000   0.000000   0.000000   0.000000   0.857951   0.000000
     6  H    0.000000   0.000000   0.000000   0.000000   0.000000   0.858280
     7  C    0.000000   0.000000   0.000000   0.000000   0.000000   0.000000
     8  H    0.000000   0.000000   0.000000   0.000000   0.000000   0.000000
     9  H    0.000000   0.000000   0.000000   0.000000   0.000000   0.000000
    10  C    0.000000   0.000000   0.000000   0.000000   0.000000   0.000000
    11  H    0.000000   0.000000   0.000000   0.000000   0.000000   0.000000
    12  H    0.000000   0.000000   0.000000   0.000000   0.000000   0.000000
               7          8          9         10         11         12
     1  C    0.000000   0.000000   0.000000   0.000000   0.000000   0.000000
     2  H    0.000000   0.000000   0.000000   0.000000   0.000000   0.000000
     3  H    0.000000   0.000000   0.000000   0.000000   0.000000   0.000000
     4  C    0.000000   0.000000   0.000000   0.000000   0.000000   0.000000
     5  H    0.000000   0.000000   0.000000   0.000000   0.000000   0.000000
     6  H    0.000000   0.000000   0.000000   0.000000   0.000000   0.000000
     7  C    4.283946   0.000000   0.000000   0.000000   0.000000   0.000000
     8  H    0.000000   0.856896   0.000000   0.000000   0.000000   0.000000
     9  H    0.000000   0.000000   0.856917   0.000000   0.000000   0.000000
    10  C    0.000000   0.000000   0.000000   4.301280   0.000000   0.000000
    11  H    0.000000   0.000000   0.000000   0.000000   0.845519   0.000000
    12  H    0.000000   0.000000   0.000000   0.000000   0.000000   0.856842
 Mulliken charges:
               1
     1  C   -0.301605
     2  H    0.154527
     3  H    0.145939
     4  C   -0.281229
     5  H    0.142049
     6  H    0.141720
     7  C   -0.283946
     8  H    0.143104
     9  H    0.143083
    10  C   -0.301280
    11  H    0.154481
    12  H    0.143158
 Sum of Mulliken charges =   0.00000
 Mulliken charges with hydrogens summed into heavy atoms:
               1
     1  C   -0.001139
     4  C    0.002539
     7  C    0.002241
    10  C   -0.003641
 Charge=              0.0000 electrons
 Dipole moment (field-independent basis, Debye):
    X=              0.0000    Y=              0.0153    Z=             -0.0283  Tot=              0.0322
 N-N= 7.511638523102D+01 E-N=-1.004012818179D+02  KE=-3.490772200987D+01

 Test job not archived.
 1|1|UNPC-DESKTOP-ATGL590|SP|RPM7|ZDO|C4H8|ICCAS|10-May-2022|0||# PM7 I
 Op(3/32=2,3/33=1) NoSymmetry||monomer optimized||0,1|C,0,0.,0.,0.66394
 905|H,0,0.,0.92451607,1.23534009|H,0,0.,-0.92451607,1.23534009|C,0,0.,
 0.,-0.66394905|H,0,0.,-0.92451607,-1.23534009|H,0,0.,0.92451607,-1.235
 34009|C,0,0.,-0.45386215,3.71529381|H,0,0.,-0.85603195,4.72498542|H,0,
 0.,-1.17711302,2.90404424|C,0,0.,0.85386218,3.48470674|H,0,0.,1.256031
 99,2.47501513|H,0,0.,1.57711305,4.29595631||Version=EM64W-G16RevB.01|H
 F=0.0581562|RMSD=5.920e-009|Dipole=0.,0.006036,-0.0111348|PG=CS [SG(C4
 H8)]||@


 THIS CURIOUS WORLD WHICH WE INHABIT IS MORE WONDERFUL THAN IT IS CONVENIENT;
 MORE BEAUTIFUL THAN IT IS USEFUL;
 IT IS MORE TO BE ADMIRED THAN IT IS TO BE USED.

                                                                 -- THOREAU
 Job cpu time:       0 days  0 hours  0 minutes  2.0 seconds.
 Elapsed time:       0 days  0 hours  0 minutes  0.2 seconds.
 File lengths (MBytes):  RWF=      6 Int=      0 D2E=      0 Chk=      2 Scr=      1
 Normal termination of Gaussian 16 at Tue May 10 09:26:55 2022.
 Entering Link 1 = C:\G16W\l1.exe PID=      2052.
  
 Copyright (c) 1988-2017, Gaussian, Inc.  All Rights Reserved.
  
 This is part of the Gaussian(R) 16 program.  It is based on
 the Gaussian(R) 09 system (copyright 2009, Gaussian, Inc.),
 the Gaussian(R) 03 system (copyright 2003, Gaussian, Inc.),
 the Gaussian(R) 98 system (copyright 1998, Gaussian, Inc.),
 the Gaussian(R) 94 system (copyright 1995, Gaussian, Inc.),
 the Gaussian 92(TM) system (copyright 1992, Gaussian, Inc.),
 the Gaussian 90(TM) system (copyright 1990, Gaussian, Inc.),
 the Gaussian 88(TM) system (copyright 1988, Gaussian, Inc.),
 the Gaussian 86(TM) system (copyright 1986, Carnegie Mellon
 University), and the Gaussian 82(TM) system (copyright 1983,
 Carnegie Mellon University). Gaussian is a federally registered
 trademark of Gaussian, Inc.
  
 This software contains proprietary and confidential information,
 including trade secrets, belonging to Gaussian, Inc.
  
 This software is provided under written license and may be
 used, copied, transmitted, or stored only in accord with that
 written license.
  
 The following legend is applicable only to US Government
 contracts under FAR:
  
                    RESTRICTED RIGHTS LEGEND
  
 Use, reproduction and disclosure by the US Government is
 subject to restrictions as set forth in subparagraphs (a)
 and (c) of the Commercial Computer Software - Restricted
 Rights clause in FAR 52.227-19.
  
 Gaussian, Inc.
 340 Quinnipiac St., Bldg. 40, Wallingford CT 06492
  
  
 ---------------------------------------------------------------
 Warning -- This program may not be used in any manner that
 competes with the business of Gaussian, Inc. or will provide
 assistance to any competitor of Gaussian, Inc.  The licensee
 of this program is prohibited from giving any competitor of
 Gaussian, Inc. access to this program.  By using this program,
 the user acknowledges that Gaussian, Inc. is engaged in the
 business of creating and licensing software in the field of
 computational chemistry and represents and warrants to the
 licensee that it is not a competitor of Gaussian, Inc. and that
 it will not use this program in any manner prohibited above.
 ---------------------------------------------------------------
  

 Cite this work as:
 Gaussian 16, Revision B.01,
 M. J. Frisch, G. W. Trucks, H. B. Schlegel, G. E. Scuseria, 
 M. A. Robb, J. R. Cheeseman, G. Scalmani, V. Barone, 
 G. A. Petersson, H. Nakatsuji, X. Li, M. Caricato, A. V. Marenich, 
 J. Bloino, B. G. Janesko, R. Gomperts, B. Mennucci, H. P. Hratchian, 
 J. V. Ortiz, A. F. Izmaylov, J. L. Sonnenberg, D. Williams-Young, 
 F. Ding, F. Lipparini, F. Egidi, J. Goings, B. Peng, A. Petrone, 
 T. Henderson, D. Ranasinghe, V. G. Zakrzewski, J. Gao, N. Rega, 
 G. Zheng, W. Liang, M. Hada, M. Ehara, K. Toyota, R. Fukuda, 
 J. Hasegawa, M. Ishida, T. Nakajima, Y. Honda, O. Kitao, H. Nakai, 
 T. Vreven, K. Throssell, J. A. Montgomery, Jr., J. E. Peralta, 
 F. Ogliaro, M. J. Bearpark, J. J. Heyd, E. N. Brothers, K. N. Kudin, 
 V. N. Staroverov, T. A. Keith, R. Kobayashi, J. Normand, 
 K. Raghavachari, A. P. Rendell, J. C. Burant, S. S. Iyengar, 
 J. Tomasi, M. Cossi, J. M. Millam, M. Klene, C. Adamo, R. Cammi, 
 J. W. Ochterski, R. L. Martin, K. Morokuma, O. Farkas, 
 J. B. Foresman, and D. J. Fox, Gaussian, Inc., Wallingford CT, 2016.
 
 ******************************************
 Gaussian 16:  EM64W-G16RevB.01 16-Dec-2017
                10-May-2022 
 ******************************************
 %chk=dimer.chk
 ------------------------------------------------------------
 # PM7 IOp(3/32=2,5/33=3) NoSymmetry Guess=Read Geom=AllCheck
 ------------------------------------------------------------
 1/29=7,38=1,172=1/1;
 2/12=2,15=1,40=1/2;
 3/5=2,14=-4,25=1,32=2,41=4200000,116=-2/1,2,3;
 4/5=1,35=1/1;
 5/5=2,33=3,35=1,38=6/2;
 6/7=2,8=2,9=2,10=2,28=1/1;
 99/5=1,9=1/99;
 Structure from the checkpoint file:  "dimer.chk"
 -----------------
 monomer optimized
 -----------------
 Charge =  0 Multiplicity = 1
 Z-Matrix found in chk file.
 C,0,0.,0.,0.66394905
 H,0,0.,0.92451607,1.23534009
 H,0,0.,-0.92451607,1.23534009
 C,0,0.,0.,-0.66394905
 H,0,0.,-0.92451607,-1.23534009
 H,0,0.,0.92451607,-1.23534009
 C,0,0.,-0.45386215,3.71529381
 H,0,0.,-0.85603195,4.72498542
 H,0,0.,-1.17711302,2.90404424
 C,0,0.,0.85386218,3.48470674
 H,0,0.,1.25603199,2.47501513
 H,0,0.,1.57711305,4.29595631
 Recover connectivity data from disk.
                          Input orientation:                          
 ---------------------------------------------------------------------
 Center     Atomic      Atomic             Coordinates (Angstroms)
 Number     Number       Type             X           Y           Z
 ---------------------------------------------------------------------
      1          6           0        0.000000    0.000000    0.663949
      2          1           0        0.000000    0.924516    1.235340
      3          1           0        0.000000   -0.924516    1.235340
      4          6           0        0.000000    0.000000   -0.663949
      5          1           0        0.000000   -0.924516   -1.235340
      6          1           0        0.000000    0.924516   -1.235340
      7          6           0        0.000000   -0.453862    3.715294
      8          1           0        0.000000   -0.856032    4.724985
      9          1           0        0.000000   -1.177113    2.904044
     10          6           0        0.000000    0.853862    3.484707
     11          1           0        0.000000    1.256032    2.475015
     12          1           0        0.000000    1.577113    4.295956
 ---------------------------------------------------------------------
                    Distance matrix (angstroms):
                    1          2          3          4          5
     1  C    0.000000
     2  H    1.086838   0.000000
     3  H    1.086838   1.849032   0.000000
     4  C    1.327898   2.112352   2.112352   0.000000
     5  H    2.112352   3.085965   2.470680   1.086838   0.000000
     6  H    2.112352   2.470680   3.085965   1.086838   1.849032
     7  C    3.084914   2.837269   2.524220   4.402699   4.972956
     8  H    4.150278   3.917649   3.490317   5.456501   5.960719
     9  H    2.530538   2.683546   1.687714   3.757149   4.147084
    10  C    2.947160   2.250476   2.867452   4.235614   5.043954
    11  H    2.203991   1.283237   2.508303   3.380934   4.303664
    12  H    3.959642   3.129418   3.952913   5.204608   6.070699
                    6          7          8          9         10
     6  H    0.000000
     7  C    5.138940   0.000000
     8  H    6.220597   1.086838   0.000000
     9  H    4.642343   1.086838   1.849032   0.000000
    10  C    4.720576   1.327898   2.112352   2.112352   0.000000
    11  H    3.725136   2.112352   3.085965   2.470680   1.086838
    12  H    5.569661   2.112352   2.470680   3.085965   1.086838
                   11         12
    11  H    0.000000
    12  H    1.849032   0.000000
 Symmetry turned off by external request.
 Stoichiometry    C4H8
 Framework group  CS[SG(C4H8)]
 Deg. of freedom    21
 Full point group                 CS      NOp   2
 Rotational constants (GHZ):          25.2663633           2.4950016           2.2707679
 Standard basis: VSTO-6G (5D, 7F)
    24 basis functions,   144 primitive gaussians,    24 cartesian basis functions
    12 alpha electrons       12 beta electrons
       nuclear repulsion energy        75.1173649507 Hartrees.
 Integral buffers will be    131072 words long.
 Regular integral format.
 Two-electron integral symmetry is turned off.
 Nuclear repulsion after empirical dispersion term =       75.1163852310 Hartrees.
 Do NDO integrals.
 One-electron integrals computed using PRISM.
 NBasis=    24 RedAO= F EigKep=  0.00D+00  NBF=    24
 NBsUse=    24 1.00D-04 EigRej=  0.00D+00 NBFU=    24
 Initial guess from the checkpoint file:  "dimer.chk"
 B after Tr=     0.000000    0.000000    0.000000
         Rot=    1.000000    0.000000    0.000000    0.000000 Ang=   0.00 deg.
 GetPCM: File not found, return IValue=0.
 A Direct SCF calculation will be performed.
 ReadGW:  IGet=1 IStart=       59235 Next=       59235 LGW=           0.
 IHM= 43 FMM=F JS2E= 0 NPI=  -1 NP=   1 NAt=    12 NB=     24 NM=     1 NOp=1 NPX=   2 ICOK=T
 SetICI:  IOpClM=          -1 LR1=              1 LR2=              0 LR3=              0
          LRAOJ=         1176 InStor=           3 jStart=       59323 jR1=          59323
          jR2=          60499 jR3=          60499 LenR=          1176 jVInt=        60499
          jVSAO=        60499 jVPerm=       60499 MDV=      104857600
 Keep J ints in memory in canonical form, NReq=860499.
 FoFCou: FMM=F IPFlag=           0 FMFlag=           0 FMFlg1=           0
         NFxFlg=           0 DoJE=F BraDBF=F KetDBF=F FulRan=T
         wScrn=  0.000000 ICntrl=       600 IOpCl=  2 I1Cent=           0 NGrid=           0
         NMat0=    1 NMatS0=     48 NMatT0=    0 NMatD0=    1 NMtDS0=    0 NMtDT0=    0
 Symmetry not used in FoFCou.
 FoFCou:  KetSym=F NOpSet=  1 NOpAb=1 NOp=  1.
 FoFCou:  CnvScl= 1.00D+00 Thresh= 1.00D-12 IAcrcy=      10.
 IniFok:  ToCart=T IDoP0=0 DoConv=F DoRafP=T DoAdj=F
 ShPair: Thresh= 1.00D-12 NBox=     0 BxSize= 0.00D+00 RnKept= 0.00D+00
         NSMCal=                   12 NSMKep=                  12
 FoFCou: LinMIO=F DoNuc=F BraDBF=F KetDBF=F HaveP=F PDBF=F HaveZ=F HaveW=F
         NIJTC =       3 NIJTAt=       0 NIJTCD=       0 NIJTT =       3
         IJTBeg=       1 IJTEnd=       3 KLTBeg=       1 KLTEnd=       3
         IPTBeg=       1 IPTEnd=       3 IPTBCv=       1 IPTECv=       3
         IZTBeg=       1 IZTEnd=       3 IZTBCv=       1 IZTECv=       3
         IWTBeg=       4 IWTEnd=       3 IWTBCv=       4 IWTECv=       3
         INTBeg=       1 INTEnd=       0 IFTBCv=       1 IFTECv=       3
 NCel replicated for PrismC:     1
 CoulSu-InSpLW:  IPartL=    0 NPrtUS=    1 NPrtUL=    1 DoSpLW=F IThBeg=    0 IThEnd=    0 NThAct=    1.
 CoulSu:  IncTry=  1024 NBBP=             78 NTPThr=   100 NPartT=    1 Incr=           1 LDynOK=F GPUOK=F.
 CoulSu:  NPrtUS=   1 ThrOK=F IAlg=2 LenDen=           0 LWGrdD=           0 DoCopy=F ISkipM=0
          DoSpLW=F IThBeg=    0 IThEnd=    0.
 CoulSu:  IPart=    0 IPartR=    0 CPU=   -1 GPU=   -1.
 Enter PrismC:  IPart=  0 JobTyp=20 DoJE=F Cont=F.
 PrismC:  IPart=     0 DynPar=F LinDyn=F Incr=           1 UseFst=F UseS4=T ISplat=1.
 PrismC was handed   104787420 working-precision words and    12 shell-pairs
 IPart=  0 NShTot=          78 NShNF=          78 NShFF=           0 MinMC=      51
           NShCPU=          78 NBCPU=           3 AvBCPU=        26.0
           NShGPU=           0 NBGPU=           0 AvBGPU=         0.0
 CoulSu-ThDecC:  IPartSL=    0    0 NPrtUSL=    1    1 IThBeg=    0 IThEnd=    0 CPU=   -1 GPU=   -1 NThAct=    1.
 CoulSu:  NxtVal=              2 LenVP=      104787421 MinMC=      51.
 Two-electron integral symmetry not used.
 Pruned (  99, 590) grid will be used in numerical quadrature.
 Closed shell SCF:
 Using DIIS extrapolation, IDIIS=  1040.
 Overlap will be assumed to be unity.
 NBasis=       24 NAllTT=      300 NAllSq=      576 NWIIB=         0
 INEq=      59298 IIJ=       59298 ID=        60591
 IDD=       61167 IDA=       60591 IDB=       60891 IF=        61191
 IFF=       61767 IFA=       61191 IFB=       61491 IScr2=     61791
 IV=        61983 IBuf2E=    60499 IMin=      78624
 IOpCl=         0
 NGot=   104857600 LenX=   104795618 LenY=   104794601
 Requested convergence on RMS density matrix=1.00D-08 within 128 cycles.
 Requested convergence on MAX density matrix=1.00D-06.
 Requested convergence on             energy=1.00D-06.
 No special actions if energy rises.
 Selected VarAcc= 1.

 Cycle   1  Pass 1  IDiag  1:
 Core hamiltonian (alpha):
                1             2             3             4             5 
      1 -0.619193D+01
      2  0.000000D+00 -0.563995D+01
      3 -0.201018D-01  0.000000D+00 -0.570526D+01
      4 -0.229158D-01  0.000000D+00 -0.683623D-02 -0.585973D+01
      5 -0.187470D+00  0.000000D+00 -0.120081D+00 -0.742152D-01 -0.562832D+01
      6 -0.187470D+00  0.000000D+00  0.120081D+00 -0.742152D-01 -0.447633D-01
      7 -0.169402D+00  0.000000D+00  0.000000D+00  0.167782D+00 -0.349134D-01
      8  0.000000D+00 -0.713097D-01  0.000000D+00  0.000000D+00  0.000000D+00
      9  0.000000D+00  0.000000D+00 -0.713097D-01  0.000000D+00 -0.171829D-01
     10 -0.167782D+00  0.000000D+00  0.000000D+00  0.959465D-01 -0.352998D-01
     11 -0.349134D-01  0.000000D+00  0.171829D-01  0.352998D-01 -0.522204D-02
     12 -0.349134D-01  0.000000D+00 -0.171829D-01  0.352998D-01 -0.158137D-01
     13 -0.378344D-02  0.000000D+00  0.107717D-02 -0.724186D-02 -0.837256D-02
     14  0.000000D+00 -0.159139D-02  0.000000D+00  0.000000D+00  0.000000D+00
     15 -0.107717D-02  0.000000D+00 -0.133162D-02 -0.174648D-02 -0.540481D-02
     16  0.724186D-02  0.000000D+00 -0.174648D-02  0.101503D-01  0.972424D-02
     17 -0.465304D-03  0.000000D+00  0.163896D-03 -0.777526D-03 -0.104016D-02
     18 -0.155700D-01  0.000000D+00  0.901858D-02 -0.171627D-01 -0.108629D-01
     19 -0.537542D-02  0.000000D+00 -0.288372D-02 -0.952645D-02 -0.268879D-01
     20  0.000000D+00 -0.222303D-02  0.000000D+00  0.000000D+00  0.000000D+00
     21  0.288372D-02  0.000000D+00 -0.898528D-03  0.437555D-02 -0.983949D-03
     22  0.952645D-02  0.000000D+00  0.437555D-02  0.122317D-01  0.313254D-01
     23 -0.293777D-01  0.000000D+00 -0.192857D-01 -0.278080D-01 -0.104050D+00
     24 -0.726436D-03  0.000000D+00 -0.476274D-03 -0.109683D-02 -0.481643D-02
                6             7             8             9            10 
      6 -0.548583D+01
      7 -0.349134D-01 -0.565390D+01
      8  0.000000D+00  0.000000D+00 -0.512143D+01
      9  0.171829D-01 -0.648478D-02  0.000000D+00 -0.517820D+01
     10 -0.352998D-01 -0.287180D+00  0.000000D+00 -0.169477D-02 -0.529572D+01
     11 -0.158137D-01 -0.187470D+00  0.000000D+00  0.120081D+00  0.742152D-01
     12 -0.522204D-02 -0.187470D+00  0.000000D+00 -0.120081D+00  0.742152D-01
     13 -0.157666D-01 -0.902217D-04  0.000000D+00  0.276572D-04 -0.266860D-03
     14  0.000000D+00  0.000000D+00 -0.497235D-04  0.000000D+00  0.000000D+00
     15  0.365549D-02 -0.276572D-04  0.000000D+00 -0.431496D-04 -0.634308D-04
     16  0.192614D-01  0.266860D-03  0.000000D+00 -0.634308D-04  0.562310D-03
     17 -0.242632D-02 -0.163368D-04  0.000000D+00  0.581069D-05 -0.365797D-04
     18 -0.576312D-01 -0.115369D-02  0.000000D+00  0.572588D-03 -0.173559D-02
     19 -0.786790D-02 -0.150447D-03  0.000000D+00 -0.853683D-04 -0.414779D-03
     20  0.000000D+00  0.000000D+00 -0.793893D-04  0.000000D+00  0.000000D+00
     21  0.652362D-02  0.853683D-04  0.000000D+00 -0.414702D-04  0.184237D-03
     22  0.825134D-02  0.414779D-03  0.000000D+00  0.184237D-03  0.815764D-03
     23 -0.148075D-01 -0.265349D-02  0.000000D+00 -0.145526D-02 -0.363685D-02
     24 -0.968189D-03 -0.325266D-04  0.000000D+00 -0.210467D-04 -0.661903D-04
               11            12            13            14            15 
     11 -0.453828D+01
     12 -0.447633D-01 -0.456060D+01
     13 -0.601518D-04 -0.387889D-04 -0.590380D+01
     14  0.000000D+00  0.000000D+00  0.000000D+00 -0.536228D+01
     15  0.115327D-04 -0.218820D-04 -0.206121D+00  0.000000D+00 -0.551271D+01
     16  0.121308D-03  0.785924D-04  0.187164D+00  0.000000D+00  0.219341D-01
     17 -0.103180D-04 -0.538324D-05 -0.187470D+00  0.000000D+00  0.522359D-01
     18 -0.649060D-03 -0.225034D-03 -0.187470D+00  0.000000D+00  0.939395D-01
     19 -0.499143D-04 -0.115224D-03 -0.169403D+00  0.000000D+00 -0.165233D+00
     20  0.000000D+00  0.000000D+00  0.000000D+00 -0.713097D-01  0.000000D+00
     21  0.362227D-04 -0.330698D-05  0.165233D+00  0.000000D+00  0.909031D-01
     22  0.961398D-04  0.220923D-03 -0.291350D-01  0.000000D+00 -0.286025D-01
     23 -0.467185D-03 -0.153096D-02 -0.349134D-01  0.000000D+00 -0.317797D-01
     24 -0.784836D-05 -0.267437D-04 -0.349134D-01  0.000000D+00 -0.377473D-01
               16            17            18            19            20 
     16 -0.546814D+01
     17 -0.131144D+00 -0.461550D+01
     18  0.105369D+00 -0.447633D-01 -0.528587D+01
     19  0.291350D-01 -0.349134D-01 -0.349134D-01 -0.597091D+01
     20  0.000000D+00  0.000000D+00  0.000000D+00  0.000000D+00 -0.542653D+01
     21 -0.286025D-01  0.317797D-01  0.377473D-01  0.229210D+00  0.000000D+00
     22 -0.662664D-01 -0.230515D-01  0.107921D-01  0.132740D+00  0.000000D+00
     23  0.230515D-01 -0.522204D-02 -0.158137D-01 -0.187470D+00  0.000000D+00
     24 -0.107921D-01 -0.158137D-01 -0.522204D-02 -0.187470D+00  0.000000D+00
               21            22            23            24 
     21 -0.557971D+01
     22  0.376216D-02 -0.553726D+01
     23 -0.522359D-01  0.131144D+00 -0.551930D+01
     24 -0.939395D-01 -0.105369D+00 -0.447633D-01 -0.467681D+01
 Core hamiltonian (beta):
                1             2             3             4             5 
      1 -0.619193D+01
      2  0.000000D+00 -0.563995D+01
      3 -0.201018D-01  0.000000D+00 -0.570526D+01
      4 -0.229158D-01  0.000000D+00 -0.683623D-02 -0.585973D+01
      5 -0.187470D+00  0.000000D+00 -0.120081D+00 -0.742152D-01 -0.562832D+01
      6 -0.187470D+00  0.000000D+00  0.120081D+00 -0.742152D-01 -0.447633D-01
      7 -0.169402D+00  0.000000D+00  0.000000D+00  0.167782D+00 -0.349134D-01
      8  0.000000D+00 -0.713097D-01  0.000000D+00  0.000000D+00  0.000000D+00
      9  0.000000D+00  0.000000D+00 -0.713097D-01  0.000000D+00 -0.171829D-01
     10 -0.167782D+00  0.000000D+00  0.000000D+00  0.959465D-01 -0.352998D-01
     11 -0.349134D-01  0.000000D+00  0.171829D-01  0.352998D-01 -0.522204D-02
     12 -0.349134D-01  0.000000D+00 -0.171829D-01  0.352998D-01 -0.158137D-01
     13 -0.378344D-02  0.000000D+00  0.107717D-02 -0.724186D-02 -0.837256D-02
     14  0.000000D+00 -0.159139D-02  0.000000D+00  0.000000D+00  0.000000D+00
     15 -0.107717D-02  0.000000D+00 -0.133162D-02 -0.174648D-02 -0.540481D-02
     16  0.724186D-02  0.000000D+00 -0.174648D-02  0.101503D-01  0.972424D-02
     17 -0.465304D-03  0.000000D+00  0.163896D-03 -0.777526D-03 -0.104016D-02
     18 -0.155700D-01  0.000000D+00  0.901858D-02 -0.171627D-01 -0.108629D-01
     19 -0.537542D-02  0.000000D+00 -0.288372D-02 -0.952645D-02 -0.268879D-01
     20  0.000000D+00 -0.222303D-02  0.000000D+00  0.000000D+00  0.000000D+00
     21  0.288372D-02  0.000000D+00 -0.898528D-03  0.437555D-02 -0.983949D-03
     22  0.952645D-02  0.000000D+00  0.437555D-02  0.122317D-01  0.313254D-01
     23 -0.293777D-01  0.000000D+00 -0.192857D-01 -0.278080D-01 -0.104050D+00
     24 -0.726436D-03  0.000000D+00 -0.476274D-03 -0.109683D-02 -0.481643D-02
                6             7             8             9            10 
      6 -0.548583D+01
      7 -0.349134D-01 -0.565390D+01
      8  0.000000D+00  0.000000D+00 -0.512143D+01
      9  0.171829D-01 -0.648478D-02  0.000000D+00 -0.517820D+01
     10 -0.352998D-01 -0.287180D+00  0.000000D+00 -0.169477D-02 -0.529572D+01
     11 -0.158137D-01 -0.187470D+00  0.000000D+00  0.120081D+00  0.742152D-01
     12 -0.522204D-02 -0.187470D+00  0.000000D+00 -0.120081D+00  0.742152D-01
     13 -0.157666D-01 -0.902217D-04  0.000000D+00  0.276572D-04 -0.266860D-03
[...]
   8                    0.48343   0.51460   0.42409   0.56712   0.00000
   9                    0.00000   0.00000   0.00000   0.00000  -0.17530
  10                    0.00000   0.00000   0.00000   0.00000  -0.05991
  11                    0.00000   0.00000   0.00000   0.00000  -0.22415
  12                    0.00000   0.00000   0.00000   0.00000   0.14064
  13                    0.00000   0.00000   0.00000   0.00000   0.00662
  14                    0.51148  -0.48721   0.56977  -0.41998   0.00000
  15                    0.00000   0.00000   0.00000   0.00000  -0.11560
  16                    0.00000   0.00000   0.00000   0.00000   0.14181
  17                    0.00000   0.00000   0.00000   0.00000  -0.22188
  18                    0.00000   0.00000   0.00000   0.00000   0.06106
  19                    0.00000   0.00000   0.00000   0.00000  -0.15169
  20                    0.51348  -0.48716  -0.56364   0.42583   0.00000
  21                    0.00000   0.00000   0.00000   0.00000  -0.19213
  22                    0.00000   0.00000   0.00000   0.00000   0.37627
  23                    0.00000   0.00000   0.00000   0.00000   0.44147
  24                    0.00000   0.00000   0.00000   0.00000  -0.04934
                          16        17        18        19        20
     Eigenvalues --     0.19323   0.20759   0.21050   0.22173   0.22843
   1                   -0.13498  -0.11755   0.09721  -0.37482   0.09989
   2                    0.00000   0.00000   0.00000   0.00000   0.00000
   3                    0.24815  -0.05515  -0.10711  -0.03455  -0.25293
   4                   -0.24214   0.47410  -0.15540   0.03339   0.01949
   5                   -0.03093  -0.11674   0.16614   0.20146   0.07059
   6                    0.39565  -0.23881  -0.10981   0.19530  -0.20930
   7                   -0.00705   0.05087  -0.02351   0.02680   0.00210
   8                    0.00000   0.00000   0.00000   0.00000   0.00000
   9                    0.18576  -0.10670  -0.29399   0.14719   0.43730
  10                   -0.12490   0.52832  -0.21489   0.30805  -0.06074
  11                    0.10862   0.14235  -0.34065   0.23762   0.30459
  12                   -0.24561   0.32667   0.15916   0.00458  -0.35882
  13                   -0.08122   0.07509   0.09673  -0.19408   0.34225
  14                    0.00000   0.00000   0.00000   0.00000   0.00000
  15                    0.29433   0.16553   0.46027   0.24855   0.05239
  16                    0.29881   0.13760  -0.23011  -0.24780  -0.22571
  17                   -0.12354  -0.12760   0.30202   0.42694  -0.03116
  18                    0.44320   0.19289   0.07946   0.06488  -0.31147
  19                   -0.00210   0.02304  -0.14872  -0.33131  -0.14125
  20                    0.00000   0.00000   0.00000   0.00000   0.00000
  21                    0.20751   0.24426   0.44599  -0.12138   0.28120
  22                    0.18301   0.13645  -0.06781  -0.02956   0.18967
  23                    0.12837   0.04953  -0.16654   0.16157   0.14536
  24                   -0.30751  -0.28445  -0.12527   0.32541  -0.18838
                          21        22        23        24
     Eigenvalues --     0.23463   0.23701   0.24678   0.25896
   1                   -0.13738  -0.01143  -0.30703  -0.33841
   2                    0.00000   0.00000   0.00000   0.00000
   3                   -0.01479  -0.00080   0.30944  -0.23884
   4                    0.35129   0.00238  -0.02228  -0.06342
   5                   -0.05421   0.00742  -0.02564   0.53666
   6                   -0.07581   0.00530   0.49110   0.07532
   7                    0.65547   0.00849   0.10261   0.07552
   8                    0.00000   0.00000   0.00000   0.00000
   9                    0.01183   0.00087  -0.20692   0.11300
  10                   -0.04407   0.00462   0.12745   0.12281
  11                   -0.44057  -0.00296  -0.15661   0.06928
  12                   -0.45711  -0.00431   0.12462  -0.07381
  13                   -0.05882   0.39819   0.33271   0.01128
  14                    0.00000   0.00000   0.00000   0.00000
  15                    0.02884   0.20393  -0.13776  -0.09876
  16                    0.01227   0.30338  -0.18829   0.10746
  17                    0.03656  -0.44058  -0.10270  -0.10156
  18                    0.06510   0.03973  -0.46987  -0.00758
  19                   -0.02517  -0.40940  -0.03155   0.32038
  20                    0.00000   0.00000   0.00000   0.00000
  21                   -0.03465   0.07891   0.15418   0.10032
  22                    0.00736  -0.35854   0.12316  -0.22484
  23                    0.03571  -0.03584   0.06956  -0.53013
  24                    0.02943   0.45620  -0.12955  -0.10407
 Final density matrix:
                1             2             3             4             5 
      1  0.553372D+00
      2  0.000000D+00  0.501519D+00
      3  0.185906D-02  0.000000D+00  0.571716D+00
      4  0.363962D-01  0.000000D+00  0.481256D-03  0.524196D+00
      5  0.273715D+00  0.000000D+00  0.341993D+00  0.205715D+00  0.422736D+00
      6  0.277504D+00  0.000000D+00 -0.345764D+00  0.209585D+00 -0.367956D-02
      7  0.164444D+00  0.000000D+00 -0.316382D-03 -0.253510D+00  0.140589D-02
      8  0.000000D+00  0.499980D+00  0.000000D+00  0.000000D+00  0.000000D+00
      9  0.204894D-03  0.000000D+00  0.592392D-01  0.301680D-03 -0.572271D-02
     10  0.252534D+00  0.000000D+00 -0.292665D-03 -0.308921D+00 -0.266907D-02
     11  0.120624D-02  0.000000D+00  0.609251D-02  0.351523D-02  0.418506D-01
     12  0.827165D-03  0.000000D+00 -0.605510D-02  0.362149D-02 -0.159979D-01
     13 -0.149469D-01  0.000000D+00  0.161289D-01 -0.112794D-01 -0.148793D-02
     14  0.000000D+00  0.244701D-02  0.000000D+00  0.000000D+00  0.000000D+00
     15  0.139972D-01  0.000000D+00 -0.154574D-01  0.122675D-01 -0.875181D-03
     16  0.154967D-01  0.000000D+00 -0.205858D-01  0.956367D-02  0.222574D-02
     17 -0.184378D-03  0.000000D+00 -0.106779D-01 -0.376881D-03  0.311041D-02
     18  0.278358D-02  0.000000D+00 -0.434772D-03  0.102342D-01  0.364526D-04
     19 -0.274669D-01  0.000000D+00 -0.312590D-01 -0.211826D-01  0.454471D-03
     20  0.000000D+00  0.345391D-02  0.000000D+00  0.000000D+00  0.000000D+00
     21 -0.142850D-01  0.000000D+00 -0.178533D-01 -0.137541D-01 -0.144980D-02
     22  0.376374D-01  0.000000D+00  0.475502D-01  0.272766D-01 -0.150635D-01
     23  0.421194D-02  0.000000D+00  0.935061D-02  0.159609D-01  0.867255D-01
     24  0.419158D-02  0.000000D+00  0.876744D-02  0.309864D-02 -0.147681D-02
                6             7             8             9            10 
      6  0.427030D+00
      7  0.118852D-02  0.550134D+00
      8  0.000000D+00  0.000000D+00  0.498515D+00
      9  0.570750D-02  0.000000D+00  0.000000D+00  0.568328D+00
     10 -0.286442D-02 -0.344071D-01  0.000000D+00  0.128046D-03  0.523637D+00
     11 -0.160644D-01  0.278277D+00  0.000000D+00 -0.347626D+00 -0.210919D+00
     12  0.422955D-01  0.278390D+00  0.000000D+00  0.347697D+00 -0.210783D+00
     13  0.164182D-03  0.254126D-02  0.000000D+00 -0.486951D-03  0.371906D-02
     14  0.000000D+00  0.000000D+00 -0.345639D-02  0.000000D+00  0.000000D+00
     15 -0.823313D-03 -0.126889D-02  0.000000D+00  0.676365D-03 -0.207852D-02
     16 -0.974914D-02 -0.267864D-02  0.000000D+00  0.511228D-04 -0.376220D-02
     17 -0.220814D-03 -0.549541D-03  0.000000D+00  0.194939D-03 -0.606908D-03
     18  0.445243D-01 -0.159679D-03  0.000000D+00  0.180060D-02 -0.122496D-02
     19 -0.375939D-03  0.358935D-02  0.000000D+00  0.997572D-03  0.545926D-02
     20  0.000000D+00  0.000000D+00 -0.246429D-02  0.000000D+00  0.000000D+00
     21 -0.266504D-03  0.934993D-03  0.000000D+00  0.756492D-03  0.180844D-02
     22 -0.361807D-03 -0.449347D-02  0.000000D+00 -0.888122D-03 -0.674104D-02
     23  0.175362D-03 -0.607900D-03  0.000000D+00 -0.357654D-02 -0.243737D-02
     24  0.269417D-02 -0.946527D-03  0.000000D+00 -0.184959D-04 -0.120608D-02
               11            12            13            14            15 
     11  0.428976D+00
     12 -0.264351D-02  0.429140D+00
     13  0.102688D-02 -0.290653D-02  0.550724D+00
     14  0.000000D+00  0.000000D+00  0.000000D+00  0.498985D+00
     15 -0.110080D-02  0.281691D-02 -0.345291D-01  0.000000D+00  0.525086D+00
     16 -0.163653D-02  0.358099D-02  0.576883D-02  0.000000D+00  0.744748D-02
     17 -0.146999D-02  0.145022D-02  0.278230D+00  0.000000D+00 -0.147041D+00
     18  0.346899D-03  0.474626D-03  0.277040D+00  0.000000D+00 -0.267156D+00
     19 -0.540104D-02  0.210395D-02  0.165951D+00  0.000000D+00  0.248976D+00
     20  0.000000D+00  0.000000D+00  0.000000D+00  0.499981D+00  0.000000D+00
     21 -0.309669D-02  0.135979D-02 -0.249044D+00  0.000000D+00 -0.297504D+00
     22  0.823561D-02 -0.368610D-02  0.427912D-01  0.000000D+00  0.633313D-01
     23  0.181062D-02 -0.443516D-03  0.709019D-03  0.000000D+00 -0.256478D-02
     24  0.145022D-02 -0.932994D-03  0.812178D-03  0.000000D+00 -0.346888D-02
               16            17            18            19            20 
     16  0.567179D+00
     17  0.378988D+00  0.428448D+00
     18 -0.304079D+00 -0.239305D-02  0.428459D+00
     19 -0.450894D-01  0.828392D-03  0.574137D-03  0.552740D+00
     20  0.000000D+00  0.000000D+00  0.000000D+00  0.000000D+00  0.500981D+00
     21  0.623864D-01  0.211918D-02  0.499478D-02  0.356546D-01  0.000000D+00
     22  0.490960D-01 -0.590384D-02  0.590806D-02 -0.944668D-02  0.000000D+00
     23  0.724702D-02  0.421855D-01 -0.176114D-01  0.273655D+00  0.000000D+00
     24 -0.465824D-02 -0.161560D-01  0.426351D-01  0.277759D+00  0.000000D+00
               21            22            23            24 
     21  0.526381D+00
     22  0.642283D-02  0.570537D+00
     23  0.145617D+00 -0.371331D+00  0.422760D+00
     24  0.267588D+00  0.306413D+00 -0.156883D-02  0.428421D+00
 Total density matrix:
                1             2             3             4             5 
      1  0.110674D+01
      2  0.000000D+00  0.100304D+01
      3  0.371813D-02  0.000000D+00  0.114343D+01
      4  0.727924D-01  0.000000D+00  0.962513D-03  0.104839D+01
      5  0.547430D+00  0.000000D+00  0.683985D+00  0.411429D+00  0.845473D+00
      6  0.555007D+00  0.000000D+00 -0.691528D+00  0.419170D+00 -0.735913D-02
      7  0.328889D+00  0.000000D+00 -0.632763D-03 -0.507020D+00  0.281179D-02
      8  0.000000D+00  0.999960D+00  0.000000D+00  0.000000D+00  0.000000D+00
      9  0.409787D-03  0.000000D+00  0.118478D+00  0.603359D-03 -0.114454D-01
     10  0.505068D+00  0.000000D+00 -0.585331D-03 -0.617842D+00 -0.533815D-02
     11  0.241248D-02  0.000000D+00  0.121850D-01  0.703047D-02  0.837012D-01
     12  0.165433D-02  0.000000D+00 -0.121102D-01  0.724298D-02 -0.319958D-01
     13 -0.298937D-01  0.000000D+00  0.322577D-01 -0.225587D-01 -0.297585D-02
     14  0.000000D+00  0.489402D-02  0.000000D+00  0.000000D+00  0.000000D+00
     15  0.279944D-01  0.000000D+00 -0.309149D-01  0.245349D-01 -0.175036D-02
     16  0.309933D-01  0.000000D+00 -0.411716D-01  0.191273D-01  0.445149D-02
     17 -0.368757D-03  0.000000D+00 -0.213557D-01 -0.753763D-03  0.622081D-02
     18  0.556715D-02  0.000000D+00 -0.869544D-03  0.204684D-01  0.729052D-04
     19 -0.549338D-01  0.000000D+00 -0.625181D-01 -0.423651D-01  0.908943D-03
     20  0.000000D+00  0.690783D-02  0.000000D+00  0.000000D+00  0.000000D+00
     21 -0.285700D-01  0.000000D+00 -0.357067D-01 -0.275082D-01 -0.289961D-02
     22  0.752748D-01  0.000000D+00  0.951003D-01  0.545532D-01 -0.301269D-01
     23  0.842389D-02  0.000000D+00  0.187012D-01  0.319218D-01  0.173451D+00
     24  0.838317D-02  0.000000D+00  0.175349D-01  0.619728D-02 -0.295361D-02
                6             7             8             9            10 
      6  0.854061D+00
      7  0.237704D-02  0.110027D+01
      8  0.000000D+00  0.000000D+00  0.997031D+00
      9  0.114150D-01  0.165375D-05  0.000000D+00  0.113666D+01
     10 -0.572885D-02 -0.688142D-01  0.000000D+00  0.256092D-03  0.104727D+01
     11 -0.321287D-01  0.556554D+00  0.000000D+00 -0.695252D+00 -0.421838D+00
     12  0.845910D-01  0.556781D+00  0.000000D+00  0.695395D+00 -0.421566D+00
     13  0.328363D-03  0.508251D-02  0.000000D+00 -0.973902D-03  0.743811D-02
     14  0.000000D+00  0.000000D+00 -0.691277D-02  0.000000D+00  0.000000D+00
     15 -0.164663D-02 -0.253778D-02  0.000000D+00  0.135273D-02 -0.415705D-02
     16 -0.194983D-01 -0.535727D-02  0.000000D+00  0.102246D-03 -0.752441D-02
     17 -0.441628D-03 -0.109908D-02  0.000000D+00  0.389877D-03 -0.121382D-02
     18  0.890486D-01 -0.319358D-03  0.000000D+00  0.360119D-02 -0.244992D-02
     19 -0.751878D-03  0.717871D-02  0.000000D+00  0.199514D-02  0.109185D-01
     20  0.000000D+00  0.000000D+00 -0.492858D-02  0.000000D+00  0.000000D+00
     21 -0.533009D-03  0.186999D-02  0.000000D+00  0.151298D-02  0.361687D-02
     22 -0.723614D-03 -0.898694D-02  0.000000D+00 -0.177624D-02 -0.134821D-01
     23  0.350725D-03 -0.121580D-02  0.000000D+00 -0.715308D-02 -0.487473D-02
     24  0.538834D-02 -0.189305D-02  0.000000D+00 -0.369918D-04 -0.241216D-02
               11            12            13            14            15 
     11  0.857951D+00
     12 -0.528701D-02  0.858280D+00
     13  0.205377D-02 -0.581305D-02  0.110145D+01
     14  0.000000D+00  0.000000D+00  0.000000D+00  0.997969D+00
     15 -0.220161D-02  0.563381D-02 -0.690583D-01  0.000000D+00  0.105017D+01
     16 -0.327306D-02  0.716198D-02  0.115377D-01  0.000000D+00  0.148950D-01
     17 -0.293998D-02  0.290043D-02  0.556461D+00  0.000000D+00 -0.294081D+00
     18  0.693797D-03  0.949251D-03  0.554080D+00  0.000000D+00 -0.534312D+00
     19 -0.108021D-01  0.420790D-02  0.331902D+00  0.000000D+00  0.497953D+00
     20  0.000000D+00  0.000000D+00  0.000000D+00  0.999962D+00  0.000000D+00
     21 -0.619338D-02  0.271957D-02 -0.498089D+00  0.000000D+00 -0.595008D+00
     22  0.164712D-01 -0.737219D-02  0.855824D-01  0.000000D+00  0.126663D+00
     23  0.362124D-02 -0.887032D-03  0.141804D-02  0.000000D+00 -0.512955D-02
     24  0.290044D-02 -0.186599D-02  0.162436D-02  0.000000D+00 -0.693775D-02
               16            17            18            19            20 
     16  0.113436D+01
     17  0.757976D+00  0.856896D+00
     18 -0.608159D+00 -0.478610D-02  0.856917D+00
     19 -0.901789D-01  0.165678D-02  0.114827D-02  0.110548D+01
     20  0.000000D+00  0.000000D+00  0.000000D+00  0.000000D+00  0.100196D+01
     21  0.124773D+00  0.423837D-02  0.998956D-02  0.713092D-01  0.000000D+00
     22  0.981920D-01 -0.118077D-01  0.118161D-01 -0.188934D-01  0.000000D+00
     23  0.144940D-01  0.843710D-01 -0.352229D-01  0.547310D+00  0.000000D+00
     24 -0.931647D-02 -0.323120D-01  0.852701D-01  0.555518D+00  0.000000D+00
               21            22            23            24 
     21  0.105276D+01
     22  0.128457D-01  0.114107D+01
     23  0.291235D+00 -0.742662D+00  0.845519D+00
     24  0.535176D+00  0.612825D+00 -0.313767D-02  0.856842D+00
 Leave Link  502 at Tue May 10 09:26:56 2022, MaxMem=   104857600 cpu:               0.0 elap:               0.0

 **********************************************************************

            Population analysis using the SCF Density.

 **********************************************************************

 Alpha  occ. eigenvalues --   -1.02423  -0.96732  -0.76179  -0.73628  -0.60868
 Alpha  occ. eigenvalues --   -0.59439  -0.53463  -0.49875  -0.47239  -0.41288
 Alpha  occ. eigenvalues --   -0.39820  -0.39418
 Alpha virt. eigenvalues --    0.03651   0.03713   0.18101   0.19323   0.20759
 Alpha virt. eigenvalues --    0.21050   0.22173   0.22843   0.23463   0.23701
 Alpha virt. eigenvalues --    0.24678   0.25896
          Condensed to atoms (all electrons):
               1          2          3          4          5          6
     1  C    4.301605   0.000000   0.000000   0.000000   0.000000   0.000000
     2  H    0.000000   0.845473   0.000000   0.000000   0.000000   0.000000
     3  H    0.000000   0.000000   0.854061   0.000000   0.000000   0.000000
     4  C    0.000000   0.000000   0.000000   4.281229   0.000000   0.000000
     5  H    0.000000   0.000000   0.000000   0.000000   0.857951   0.000000
     6  H    0.000000   0.000000   0.000000   0.000000   0.000000   0.858280
     7  C    0.000000   0.000000   0.000000   0.000000   0.000000   0.000000
     8  H    0.000000   0.000000   0.000000   0.000000   0.000000   0.000000
     9  H    0.000000   0.000000   0.000000   0.000000   0.000000   0.000000
    10  C    0.000000   0.000000   0.000000   0.000000   0.000000   0.000000
    11  H    0.000000   0.000000   0.000000   0.000000   0.000000   0.000000
    12  H    0.000000   0.000000   0.000000   0.000000   0.000000   0.000000
               7          8          9         10         11         12
     1  C    0.000000   0.000000   0.000000   0.000000   0.000000   0.000000
     2  H    0.000000   0.000000   0.000000   0.000000   0.000000   0.000000
     3  H    0.000000   0.000000   0.000000   0.000000   0.000000   0.000000
     4  C    0.000000   0.000000   0.000000   0.000000   0.000000   0.000000
     5  H    0.000000   0.000000   0.000000   0.000000   0.000000   0.000000
     6  H    0.000000   0.000000   0.000000   0.000000   0.000000   0.000000
     7  C    4.283946   0.000000   0.000000   0.000000   0.000000   0.000000
     8  H    0.000000   0.856896   0.000000   0.000000   0.000000   0.000000
     9  H    0.000000   0.000000   0.856917   0.000000   0.000000   0.000000
    10  C    0.000000   0.000000   0.000000   4.301280   0.000000   0.000000
    11  H    0.000000   0.000000   0.000000   0.000000   0.845519   0.000000
    12  H    0.000000   0.000000   0.000000   0.000000   0.000000   0.856842
 Mulliken charges:
               1
     1  C   -0.301605
     2  H    0.154527
     3  H    0.145939
     4  C   -0.281229
     5  H    0.142049
     6  H    0.141720
     7  C   -0.283946
     8  H    0.143104
     9  H    0.143083
    10  C   -0.301280
    11  H    0.154481
    12  H    0.143158
 Sum of Mulliken charges =   0.00000
 Mulliken charges with hydrogens summed into heavy atoms:
               1
     1  C   -0.001139
     4  C    0.002539
     7  C    0.002241
    10  C   -0.003641
 Charge=              0.0000 electrons
 Dipole moment (field-independent basis, Debye):
    X=              0.0000    Y=              0.0153    Z=             -0.0283  Tot=              0.0322
 N-N= 7.511638523102D+01 E-N=-1.004012818122D+02  KE=-3.490772201559D+01

 Test job not archived.
 1|1|UNPC-DESKTOP-ATGL590|SP|RPM7|ZDO|C4H8|ICCAS|10-May-2022|0||# PM7 I
 Op(3/32=2,5/33=3) NoSymmetry Guess=Read Geom=AllCheck||monomer optimiz
 ed||0,1|C,0,0.,0.,0.66394905|H,0,0.,0.92451607,1.23534009|H,0,0.,-0.92
 451607,1.23534009|C,0,0.,0.,-0.66394905|H,0,0.,-0.92451607,-1.23534009
 |H,0,0.,0.92451607,-1.23534009|C,0,0.,-0.45386215,3.71529381|H,0,0.,-0
 .85603195,4.72498542|H,0,0.,-1.17711302,2.90404424|C,0,0.,0.85386218,3
 .48470674|H,0,0.,1.25603199,2.47501513|H,0,0.,1.57711305,4.29595631||V
 ersion=EM64W-G16RevB.01|HF=0.0581562|RMSD=4.527e-010|Dipole=0.,0.00603
 6,-0.0111348|PG=CS [SG(C4H8)]||@


 THIS CURIOUS WORLD WHICH WE INHABIT IS MORE WONDERFUL THAN IT IS CONVENIENT;
 MORE BEAUTIFUL THAN IT IS USEFUL;
 IT IS MORE TO BE ADMIRED THAN IT IS TO BE USED.

                                                                 -- THOREAU
 Job cpu time:       0 days  0 hours  0 minutes  1.0 seconds.
 Elapsed time:       0 days  0 hours  0 minutes  0.3 seconds.
 File lengths (MBytes):  RWF=      6 Int=      0 D2E=      0 Chk=      2 Scr=      1
 Normal termination of Gaussian 16 at Tue May 10 09:26:56 2022.
