 Entering Gaussian System, Link 0=g16
 Input=monomer2.gjf
 Output=monomer2.out
 Initial command:
 C:\G16W\l1.exe ".\Gau-15692.inp" "monomer2.out" /scrdir=".\"
 Entering Link 1 = C:\G16W\l1.exe PID=      6352.
  
 Copyright (c) 1988-2017, Gaussian, Inc.  All Rights Reserved.
  
 This is part of the Gaussian(R) 16 program.  It is based on
 the Gaussian(R) 09 system (copyright 2009, Gaussian, Inc.),
 the Gaussian(R) 03 system (copyright 2003, Gaussian, Inc.),
 the Gaussian(R) 98 system (copyright 1998, Gaussian, Inc.),
 the Gaussian(R) 94 system (copyright 1995, Gaussian, Inc.),
 the Gaussian 92(TM) system (copyright 1992, Gaussian, Inc.),
 the Gaussian 90(TM) system (copyright 1990, Gaussian, Inc.),
 the Gaussian 88(TM) system (copyright 1988, Gaussian, Inc.),
 the Gaussian 86(TM) system (copyright 1986, Carnegie Mellon
 University), and the Gaussian 82(TM) system (copyright 1983,
 Carnegie Mellon University). Gaussian is a federally registered
 trademark of Gaussian, Inc.
  
 This software contains proprietary and confidential information,
 including trade secrets, belonging to Gaussian, Inc.
  
 This software is provided under written license and may be
 used, copied, transmitted, or stored only in accord with that
 written license.
  
 The following legend is applicable only to US Government
 contracts under FAR:
  
                    RESTRICTED RIGHTS LEGEND
  
 Use, reproduction and disclosure by the US Government is
 subject to restrictions as set forth in subparagraphs (a)
 and (c) of the Commercial Computer Software - Restricted
 Rights clause in FAR 52.227-19.
  
 Gaussian, Inc.
 340 Quinnipiac St., Bldg. 40, Wallingford CT 06492
  
  
 ---------------------------------------------------------------
 Warning -- This program may not be used in any manner that
 competes with the business of Gaussian, Inc. or will provide
 assistance to any competitor of Gaussian, Inc.  The licensee
 of this program is prohibited from giving any competitor of
 Gaussian, Inc. access to this program.  By using this program,
 the user acknowledges that Gaussian, Inc. is engaged in the
 business of creating and licensing software in the field of
 computational chemistry and represents and warrants to the
 licensee that it is not a competitor of Gaussian, Inc. and that
 it will not use this program in any manner prohibited above.
 ---------------------------------------------------------------
  

 Cite this work as:
 Gaussian 16, Revision B.01,
 M. J. Frisch, G. W. Trucks, H. B. Schlegel, G. E. Scuseria, 
 M. A. Robb, J. R. Cheeseman, G. Scalmani, V. Barone, 
 G. A. Petersson, H. Nakatsuji, X. Li, M. Caricato, A. V. Marenich, 
 J. Bloino, B. G. Janesko, R. Gomperts, B. Mennucci, H. P. Hratchian, 
 J. V. Ortiz, A. F. Izmaylov, J. L. Sonnenberg, D. Williams-Young, 
 F. Ding, F. Lipparini, F. Egidi, J. Goings, B. Peng, A. Petrone, 
 T. Henderson, D. Ranasinghe, V. G. Zakrzewski, J. Gao, N. Rega, 
 G. Zheng, W. Liang, M. Hada, M. Ehara, K. Toyota, R. Fukuda, 
 J. Hasegawa, M. Ishida, T. Nakajima, Y. Honda, O. Kitao, H. Nakai, 
 T. Vreven, K. Throssell, J. A. Montgomery, Jr., J. E. Peralta, 
 F. Ogliaro, M. J. Bearpark, J. J. Heyd, E. N. Brothers, K. N. Kudin, 
 V. N. Staroverov, T. A. Keith, R. Kobayashi, J. Normand, 
 K. Raghavachari, A. P. Rendell, J. C. Burant, S. S. Iyengar, 
 J. Tomasi, M. Cossi, J. M. Millam, M. Klene, C. Adamo, R. Cammi, 
 J. W. Ochterski, R. L. Martin, K. Morokuma, O. Farkas, 
 J. B. Foresman, and D. J. Fox, Gaussian, Inc., Wallingford CT, 2016.
 
 ******************************************
 Gaussian 16:  EM64W-G16RevB.01 16-Dec-2017
                10-May-2022 
 ******************************************
 %chk=monomer2.chk
 ----------------------------
 # PM7 IOp(3/32=2) NoSymmetry
 ----------------------------
 1/38=1,172=1/1;
 2/12=2,15=1,17=6,18=5,40=1/2;
 3/5=2,25=1,32=2,41=4200000/1,2,3;
 4/35=1/1;
 5/5=2,35=1,38=5/2;
 6/7=2,8=2,9=2,10=2,28=1/1;
 99/5=1,9=1/99;
 -----------------
 monomer optimized
 -----------------
 Symbolic Z-matrix:
 Charge =  0 Multiplicity = 1
 C                     0.       -0.45386   3.71529 
 H                     0.       -0.85603   4.72499 
 H                     0.       -1.17711   2.90404 
 C                     0.        0.85386   3.48471 
 H                     0.        1.25603   2.47502 
 H                     0.        1.57711   4.29596 
 
                          Input orientation:                          
 ---------------------------------------------------------------------
 Center     Atomic      Atomic             Coordinates (Angstroms)
 Number     Number       Type             X           Y           Z
 ---------------------------------------------------------------------
      1          6           0        0.000000   -0.453862    3.715294
      2          1           0        0.000000   -0.856032    4.724985
      3          1           0        0.000000   -1.177113    2.904044
      4          6           0        0.000000    0.853862    3.484707
      5          1           0        0.000000    1.256032    2.475015
      6          1           0        0.000000    1.577113    4.295956
 ---------------------------------------------------------------------
                    Distance matrix (angstroms):
                    1          2          3          4          5
     1  C    0.000000
     2  H    1.086838   0.000000
     3  H    1.086838   1.849032   0.000000
     4  C    1.327898   2.112352   2.112352   0.000000
     5  H    2.112352   3.085965   2.470680   1.086838   0.000000
     6  H    2.112352   2.470680   3.085965   1.086838   1.849032
                    6
     6  H    0.000000
 Symmetry turned off by external request.
 Stoichiometry    C2H4
 Framework group  D2H[C2"(C.C),SG(H4)]
 Deg. of freedom     3
 Full point group                 D2H     NOp   8
 Rotational constants (GHZ):         146.6706238          30.2045082          25.0465626
 Standard basis: VSTO-6G (5D, 7F)
    12 basis functions,    72 primitive gaussians,    12 cartesian basis functions
     6 alpha electrons        6 beta electrons
       nuclear repulsion energy        27.1839676723 Hartrees.
 Integral buffers will be    131072 words long.
 Regular integral format.
 Two-electron integral symmetry is turned off.
 Nuclear repulsion after empirical dispersion term =       27.1839105145 Hartrees.
 Do NDO integrals.
 One-electron integrals computed using PRISM.
 NBasis=    12 RedAO= F EigKep=  0.00D+00  NBF=    12
 NBsUse=    12 1.00D-04 EigRej=  0.00D+00 NBFU=    12
 Simple Huckel Guess.
 Keep J ints in memory in canonical form, NReq=859449.
 Overlap will be assumed to be unity.
 Requested convergence on RMS density matrix=1.00D-08 within 128 cycles.
 Requested convergence on MAX density matrix=1.00D-06.
 Requested convergence on             energy=1.00D-06.
 No special actions if energy rises.
 SCF Done:  E(RPM7) =  0.228850337821E-01 A.U. after    9 cycles
            NFock=  8  Conv=0.22D-08     -V/T= 1.0013

 **********************************************************************

            Population analysis using the SCF Density.

 **********************************************************************

 Alpha  occ. eigenvalues --   -0.98732  -0.73629  -0.59902  -0.52543  -0.44519
 Alpha  occ. eigenvalues --   -0.39525
 Alpha virt. eigenvalues --    0.03775   0.19981   0.20660   0.23381   0.23703
 Alpha virt. eigenvalues --    0.23756
          Condensed to atoms (all electrons):
               1          2          3          4          5          6
     1  C    4.283754   0.000000   0.000000   0.000000   0.000000   0.000000
     2  H    0.000000   0.858123   0.000000   0.000000   0.000000   0.000000
     3  H    0.000000   0.000000   0.858123   0.000000   0.000000   0.000000
     4  C    0.000000   0.000000   0.000000   4.283754   0.000000   0.000000
     5  H    0.000000   0.000000   0.000000   0.000000   0.858123   0.000000
     6  H    0.000000   0.000000   0.000000   0.000000   0.000000   0.858123
 Mulliken charges:
               1
     1  C   -0.283754
     2  H    0.141877
     3  H    0.141877
     4  C   -0.283754
     5  H    0.141877
     6  H    0.141877
 Sum of Mulliken charges =   0.00000
 Mulliken charges with hydrogens summed into heavy atoms:
               1
     1  C    0.000000
     4  C    0.000000
 Charge=              0.0000 electrons
 Dipole moment (field-independent basis, Debye):
    X=              0.0000    Y=              0.0000    Z=              0.0000  Tot=              0.0000
 N-N= 2.718391051451D+01 E-N=-2.952499437902D+01  KE=-1.742006991289D+01

 Test job not archived.
 1|1|UNPC-DESKTOP-ATGL590|SP|RPM7|ZDO|C2H4|ICCAS|10-May-2022|0||# PM7 I
 Op(3/32=2) NoSymmetry||monomer optimized||0,1|C,0,0.,-0.45386215,3.715
 29381|H,0,0.,-0.85603195,4.72498542|H,0,0.,-1.17711302,2.90404424|C,0,
 0.,0.85386218,3.48470674|H,0,0.,1.25603199,2.47501513|H,0,0.,1.5771130
 5,4.29595631||Version=EM64W-G16RevB.01|HF=0.022885|RMSD=2.242e-009|Dip
 ole=0.,0.,0.|PG=D02H [C2"(C1.C1),SG(H4)]||@


 HE THAT FOLLOWS NATURE IS NEVER LOST.

                             -- BACON
 Job cpu time:       0 days  0 hours  0 minutes  2.0 seconds.
 Elapsed time:       0 days  0 hours  0 minutes  0.2 seconds.
 File lengths (MBytes):  RWF=      6 Int=      0 D2E=      0 Chk=      2 Scr=      1
 Normal termination of Gaussian 16 at Tue May 10 12:13:46 2022.
 Entering Link 1 = C:\G16W\l1.exe PID=     14428.
  
 Copyright (c) 1988-2017, Gaussian, Inc.  All Rights Reserved.
  
 This is part of the Gaussian(R) 16 program.  It is based on
 the Gaussian(R) 09 system (copyright 2009, Gaussian, Inc.),
 the Gaussian(R) 03 system (copyright 2003, Gaussian, Inc.),
 the Gaussian(R) 98 system (copyright 1998, Gaussian, Inc.),
 the Gaussian(R) 94 system (copyright 1995, Gaussian, Inc.),
 the Gaussian 92(TM) system (copyright 1992, Gaussian, Inc.),
 the Gaussian 90(TM) system (copyright 1990, Gaussian, Inc.),
 the Gaussian 88(TM) system (copyright 1988, Gaussian, Inc.),
 the Gaussian 86(TM) system (copyright 1986, Carnegie Mellon
 University), and the Gaussian 82(TM) system (copyright 1983,
 Carnegie Mellon University). Gaussian is a federally registered
 trademark of Gaussian, Inc.
  
 This software contains proprietary and confidential information,
 including trade secrets, belonging to Gaussian, Inc.
  
 This software is provided under written license and may be
 used, copied, transmitted, or stored only in accord with that
 written license.
  
 The following legend is applicable only to US Government
 contracts under FAR:
  
                    RESTRICTED RIGHTS LEGEND
  
 Use, reproduction and disclosure by the US Government is
 subject to restrictions as set forth in subparagraphs (a)
 and (c) of the Commercial Computer Software - Restricted
 Rights clause in FAR 52.227-19.
  
 Gaussian, Inc.
 340 Quinnipiac St., Bldg. 40, Wallingford CT 06492
  
  
 ---------------------------------------------------------------
 Warning -- This program may not be used in any manner that
 competes with the business of Gaussian, Inc. or will provide
 assistance to any competitor of Gaussian, Inc.  The licensee
 of this program is prohibited from giving any competitor of
 Gaussian, Inc. access to this program.  By using this program,
 the user acknowledges that Gaussian, Inc. is engaged in the
 business of creating and licensing software in the field of
 computational chemistry and represents and warrants to the
 licensee that it is not a competitor of Gaussian, Inc. and that
 it will not use this program in any manner prohibited above.
 ---------------------------------------------------------------
  

 Cite this work as:
 Gaussian 16, Revision B.01,
 M. J. Frisch, G. W. Trucks, H. B. Schlegel, G. E. Scuseria, 
 M. A. Robb, J. R. Cheeseman, G. Scalmani, V. Barone, 
 G. A. Petersson, H. Nakatsuji, X. Li, M. Caricato, A. V. Marenich, 
 J. Bloino, B. G. Janesko, R. Gomperts, B. Mennucci, H. P. Hratchian, 
 J. V. Ortiz, A. F. Izmaylov, J. L. Sonnenberg, D. Williams-Young, 
 F. Ding, F. Lipparini, F. Egidi, J. Goings, B. Peng, A. Petrone, 
 T. Henderson, D. Ranasinghe, V. G. Zakrzewski, J. Gao, N. Rega, 
 G. Zheng, W. Liang, M. Hada, M. Ehara, K. Toyota, R. Fukuda, 
 J. Hasegawa, M. Ishida, T. Nakajima, Y. Honda, O. Kitao, H. Nakai, 
 T. Vreven, K. Throssell, J. A. Montgomery, Jr., J. E. Peralta, 
 F. Ogliaro, M. J. Bearpark, J. J. Heyd, E. N. Brothers, K. N. Kudin, 
 V. N. Staroverov, T. A. Keith, R. Kobayashi, J. Normand, 
 K. Raghavachari, A. P. Rendell, J. C. Burant, S. S. Iyengar, 
 J. Tomasi, M. Cossi, J. M. Millam, M. Klene, C. Adamo, R. Cammi, 
 J. W. Ochterski, R. L. Martin, K. Morokuma, O. Farkas, 
 J. B. Foresman, and D. J. Fox, Gaussian, Inc., Wallingford CT, 2016.
 
 ******************************************
 Gaussian 16:  EM64W-G16RevB.01 16-Dec-2017
                10-May-2022 
 ******************************************
 %chk=monomer2.chk
 ------------------------------------------------------------
 # PM7 IOp(3/32=2,5/33=3) NoSymmetry Guess=Read Geom=AllCheck
 ------------------------------------------------------------
 1/29=7,38=1,172=1/1;
 2/12=2,15=1,40=1/2;
 3/5=2,14=-4,25=1,32=2,41=4200000,116=-2/1,2,3;
 4/5=1,35=1/1;
 5/5=2,33=3,35=1,38=6/2;
 6/7=2,8=2,9=2,10=2,28=1/1;
 99/5=1,9=1/99;
 Structure from the checkpoint file:  "monomer2.chk"
 -----------------
 monomer optimized
 -----------------
 Charge =  0 Multiplicity = 1
 Z-Matrix found in chk file.
 C,0,0.,-0.45386215,3.71529381
 H,0,0.,-0.85603195,4.72498542
 H,0,0.,-1.17711302,2.90404424
 C,0,0.,0.85386218,3.48470674
 H,0,0.,1.25603199,2.47501513
 H,0,0.,1.57711305,4.29595631
 Recover connectivity data from disk.
                          Input orientation:                          
 ---------------------------------------------------------------------
 Center     Atomic      Atomic             Coordinates (Angstroms)
 Number     Number       Type             X           Y           Z
 ---------------------------------------------------------------------
      1          6           0        0.000000   -0.453862    3.715294
      2          1           0        0.000000   -0.856032    4.724985
      3          1           0        0.000000   -1.177113    2.904044
      4          6           0        0.000000    0.853862    3.484707
      5          1           0        0.000000    1.256032    2.475015
      6          1           0        0.000000    1.577113    4.295956
 ---------------------------------------------------------------------
                    Distance matrix (angstroms):
                    1          2          3          4          5
     1  C    0.000000
     2  H    1.086838   0.000000
     3  H    1.086838   1.849032   0.000000
     4  C    1.327898   2.112352   2.112352   0.000000
     5  H    2.112352   3.085965   2.470680   1.086838   0.000000
     6  H    2.112352   2.470680   3.085965   1.086838   1.849032
                    6
     6  H    0.000000
 Symmetry turned off by external request.
 Stoichiometry    C2H4
 Framework group  C2H[SGH(C2H4)]
 Deg. of freedom     5
 Full point group                 C2H     NOp   4
 Rotational constants (GHZ):         146.6706238          30.2045082          25.0465626
 Standard basis: VSTO-6G (5D, 7F)
    12 basis functions,    72 primitive gaussians,    12 cartesian basis functions
     6 alpha electrons        6 beta electrons
       nuclear repulsion energy        27.1839676723 Hartrees.
 Integral buffers will be    131072 words long.
 Regular integral format.
 Two-electron integral symmetry is turned off.
 Nuclear repulsion after empirical dispersion term =       27.1839105145 Hartrees.
 Do NDO integrals.
 One-electron integrals computed using PRISM.
 NBasis=    12 RedAO= F EigKep=  0.00D+00  NBF=    12
 NBsUse=    12 1.00D-04 EigRej=  0.00D+00 NBFU=    12
 Initial guess from the checkpoint file:  "monomer2.chk"
 B after Tr=     0.000000    0.000000    0.000000
         Rot=    1.000000    0.000000    0.000000    0.000000 Ang=   0.00 deg.
 GetPCM: File not found, return IValue=0.
 A Direct SCF calculation will be performed.
 ReadGW:  IGet=1 IStart=       59073 Next=       59073 LGW=           0.
 IHM= 43 FMM=F JS2E= 0 NPI=  -1 NP=   1 NAt=     6 NB=     12 NM=     1 NOp=1 NPX=   2 ICOK=T
 SetICI:  IOpClM=          -1 LR1=              1 LR2=              0 LR3=              0
          LRAOJ=          300 InStor=           3 jStart=       59149 jR1=          59149
          jR2=          59449 jR3=          59449 LenR=           300 jVInt=        59449
          jVSAO=        59449 jVPerm=       59449 MDV=      104857600
 Keep J ints in memory in canonical form, NReq=859449.
 FoFCou: FMM=F IPFlag=           0 FMFlag=           0 FMFlg1=           0
         NFxFlg=           0 DoJE=F BraDBF=F KetDBF=F FulRan=T
         wScrn=  0.000000 ICntrl=       600 IOpCl=  2 I1Cent=           0 NGrid=           0
         NMat0=    1 NMatS0=     24 NMatT0=    0 NMatD0=    1 NMtDS0=    0 NMtDT0=    0
 Symmetry not used in FoFCou.
 FoFCou:  KetSym=F NOpSet=  1 NOpAb=1 NOp=  1.
 FoFCou:  CnvScl= 1.00D+00 Thresh= 1.00D-12 IAcrcy=      10.
 IniFok:  ToCart=T IDoP0=0 DoConv=F DoRafP=T DoAdj=F
 ShPair: Thresh= 1.00D-12 NBox=     0 BxSize= 0.00D+00 RnKept= 0.00D+00
         NSMCal=                    6 NSMKep=                   6
 FoFCou: LinMIO=F DoNuc=F BraDBF=F KetDBF=F HaveP=F PDBF=F HaveZ=F HaveW=F
         NIJTC =       3 NIJTAt=       0 NIJTCD=       0 NIJTT =       3
         IJTBeg=       1 IJTEnd=       3 KLTBeg=       1 KLTEnd=       3
         IPTBeg=       1 IPTEnd=       3 IPTBCv=       1 IPTECv=       3
         IZTBeg=       1 IZTEnd=       3 IZTBCv=       1 IZTECv=       3
         IWTBeg=       4 IWTEnd=       3 IWTBCv=       4 IWTECv=       3
         INTBeg=       1 INTEnd=       0 IFTBCv=       1 IFTECv=       3
 NCel replicated for PrismC:     1
 CoulSu-InSpLW:  IPartL=    0 NPrtUS=    1 NPrtUL=    1 DoSpLW=F IThBeg=    0 IThEnd=    0 NThAct=    1.
 CoulSu:  IncTry=  1024 NBBP=             21 NTPThr=   100 NPartT=    1 Incr=           1 LDynOK=F GPUOK=F.
 CoulSu:  NPrtUS=   1 ThrOK=F IAlg=2 LenDen=           0 LWGrdD=           0 DoCopy=F ISkipM=0
          DoSpLW=F IThBeg=    0 IThEnd=    0.
 CoulSu:  IPart=    0 IPartR=    0 CPU=   -1 GPU=   -1.
 Enter PrismC:  IPart=  0 JobTyp=20 DoJE=F Cont=F.
 PrismC:  IPart=     0 DynPar=F LinDyn=F Incr=           1 UseFst=F UseS4=T ISplat=1.
 PrismC was handed   104792811 working-precision words and     6 shell-pairs
 IPart=  0 NShTot=          21 NShNF=          21 NShFF=           0 MinMC=      51
           NShCPU=          21 NBCPU=           3 AvBCPU=         7.0
           NShGPU=           0 NBGPU=           0 AvBGPU=         0.0
 CoulSu-ThDecC:  IPartSL=    0    0 NPrtUSL=    1    1 IThBeg=    0 IThEnd=    0 CPU=   -1 GPU=   -1 NThAct=    1.
 CoulSu:  NxtVal=              2 LenVP=      104792812 MinMC=      51.
 Two-electron integral symmetry not used.
 Pruned (  99, 590) grid will be used in numerical quadrature.
 Closed shell SCF:
 Using DIIS extrapolation, IDIIS=  1040.
 Overlap will be assumed to be unity.
 NBasis=       12 NAllTT=      231 NAllSq=      441 NWIIB=         0
 INEq=      59136 IIJ=       59136 ID=        59529
 IDD=       59970 IDA=       59529 IDB=       59760 IF=        59991
 IFF=       60432 IFA=       59991 IFB=       60222 IScr2=     60453
 IV=        60621 IBuf2E=    59449 IMin=      77262
 IOpCl=         0
 NGot=   104857600 LenX=   104796980 LenY=   104796098
 Requested convergence on RMS density matrix=1.00D-08 within 128 cycles.
 Requested convergence on MAX density matrix=1.00D-06.
 Requested convergence on             energy=1.00D-06.
 No special actions if energy rises.
 Selected VarAcc= 1.

 Cycle   1  Pass 1  IDiag  1:
 Core hamiltonian (alpha):
                1             2             3             4             5 
      1 -0.421841D+01
      2  0.000000D+00 -0.369457D+01
      3 -0.186204D+00  0.000000D+00 -0.384220D+01
      4  0.328328D-01  0.000000D+00  0.162821D-01 -0.375273D+01
      5 -0.187470D+00  0.000000D+00  0.522359D-01 -0.131144D+00 -0.328394D+01
      6 -0.187470D+00  0.000000D+00  0.939395D-01  0.105369D+00 -0.447633D-01
      7 -0.169403D+00  0.000000D+00 -0.165233D+00  0.291350D-01 -0.349134D-01
      8  0.000000D+00 -0.713097D-01  0.000000D+00  0.000000D+00  0.000000D+00
      9  0.165233D+00  0.000000D+00  0.909031D-01 -0.286025D-01  0.317797D-01
     10 -0.291350D-01  0.000000D+00 -0.286025D-01 -0.662664D-01 -0.230515D-01
     11 -0.349134D-01  0.000000D+00 -0.317797D-01  0.230515D-01 -0.522204D-02
     12 -0.349134D-01  0.000000D+00 -0.377473D-01 -0.107921D-01 -0.158137D-01
                6             7             8             9            10 
      6 -0.328394D+01
      7 -0.349134D-01 -0.421841D+01
      8  0.000000D+00  0.000000D+00 -0.369457D+01
      9  0.377473D-01  0.186204D+00  0.000000D+00 -0.384220D+01
     10  0.107921D-01 -0.328328D-01  0.000000D+00  0.162821D-01 -0.375273D+01
     11 -0.158137D-01 -0.187470D+00  0.000000D+00 -0.522359D-01  0.131144D+00
     12 -0.522204D-02 -0.187470D+00  0.000000D+00 -0.939395D-01 -0.105369D+00
               11            12 
     11 -0.328394D+01
     12 -0.447633D-01 -0.328394D+01
 Core hamiltonian (beta):
                1             2             3             4             5 
      1 -0.421841D+01
      2  0.000000D+00 -0.369457D+01
      3 -0.186204D+00  0.000000D+00 -0.384220D+01
      4  0.328328D-01  0.000000D+00  0.162821D-01 -0.375273D+01
      5 -0.187470D+00  0.000000D+00  0.522359D-01 -0.131144D+00 -0.328394D+01
      6 -0.187470D+00  0.000000D+00  0.939395D-01  0.105369D+00 -0.447633D-01
      7 -0.169403D+00  0.000000D+00 -0.165233D+00  0.291350D-01 -0.349134D-01
      8  0.000000D+00 -0.713097D-01  0.000000D+00  0.000000D+00  0.000000D+00
      9  0.165233D+00  0.000000D+00  0.909031D-01 -0.286025D-01  0.317797D-01
     10 -0.291350D-01  0.000000D+00 -0.286025D-01 -0.662664D-01 -0.230515D-01
     11 -0.349134D-01  0.000000D+00 -0.317797D-01  0.230515D-01 -0.522204D-02
     12 -0.349134D-01  0.000000D+00 -0.377473D-01 -0.107921D-01 -0.158137D-01
                6             7             8             9            10 
      6 -0.328394D+01
      7 -0.349134D-01 -0.421841D+01
      8  0.000000D+00  0.000000D+00 -0.369457D+01
      9  0.377473D-01  0.186204D+00  0.000000D+00 -0.384220D+01
     10  0.107921D-01 -0.328328D-01  0.000000D+00  0.162821D-01 -0.375273D+01
     11 -0.158137D-01 -0.187470D+00  0.000000D+00 -0.522359D-01  0.131144D+00
     12 -0.522204D-02 -0.187470D+00  0.000000D+00 -0.939395D-01 -0.105369D+00
               11            12 
     11 -0.328394D+01
     12 -0.447633D-01 -0.328394D+01
 Density matrix (alpha):
                1             2             3             4             5 
      1  0.549936D+00
      2  0.000000D+00  0.500000D+00
      3 -0.339329D-01  0.000000D+00  0.524906D+00
      4  0.598328D-02  0.000000D+00  0.766691D-02  0.567035D+00
      5  0.278373D+00  0.000000D+00 -0.147243D+00  0.379043D+00  0.429061D+00
      6  0.278373D+00  0.000000D+00 -0.268004D+00 -0.305823D+00 -0.255127D-02
      7  0.165029D+00  0.000000D+00  0.249333D+00 -0.439641D-01  0.867140D-03
      8  0.000000D+00  0.500000D+00  0.000000D+00  0.000000D+00  0.000000D+00
      9 -0.249333D+00  0.000000D+00 -0.297532D+00  0.628114D-01  0.239521D-02
     10  0.439641D-01  0.000000D+00  0.628114D-01  0.476135D-01 -0.628272D-02
     11  0.867140D-03  0.000000D+00 -0.239521D-02  0.628272D-02  0.425258D-01
     12  0.867140D-03  0.000000D+00 -0.439958D-02 -0.508461D-02 -0.161630D-01
                6             7             8             9            10 
      6  0.429061D+00
      7  0.867140D-03  0.549936D+00
      8  0.000000D+00  0.000000D+00  0.500000D+00
      9  0.439958D-02  0.339329D-01  0.000000D+00  0.524906D+00
     10  0.508461D-02 -0.598328D-02  0.000000D+00  0.766691D-02  0.567035D+00
     11 -0.161630D-01  0.278373D+00  0.000000D+00  0.147243D+00 -0.379043D+00
     12  0.425258D-01  0.278373D+00  0.000000D+00  0.268004D+00  0.305823D+00
               11            12 
     11  0.429061D+00
     12 -0.255127D-02  0.429061D+00
 Density matrix (beta):
                1             2             3             4             5 
      1  0.549936D+00
      2  0.000000D+00  0.500000D+00
      3 -0.339329D-01  0.000000D+00  0.524906D+00
      4  0.598328D-02  0.000000D+00  0.766691D-02  0.567035D+00
      5  0.278373D+00  0.000000D+00 -0.147243D+00  0.379043D+00  0.429061D+00
      6  0.278373D+00  0.000000D+00 -0.268004D+00 -0.305823D+00 -0.255127D-02
      7  0.165029D+00  0.000000D+00  0.249333D+00 -0.439641D-01  0.867140D-03
      8  0.000000D+00  0.500000D+00  0.000000D+00  0.000000D+00  0.000000D+00
      9 -0.249333D+00  0.000000D+00 -0.297532D+00  0.628114D-01  0.239521D-02
     10  0.439641D-01  0.000000D+00  0.628114D-01  0.476135D-01 -0.628272D-02
     11  0.867140D-03  0.000000D+00 -0.239521D-02  0.628272D-02  0.425258D-01
     12  0.867140D-03  0.000000D+00 -0.439958D-02 -0.508461D-02 -0.161630D-01
                6             7             8             9            10 
      6  0.429061D+00
      7  0.867140D-03  0.549936D+00
      8  0.000000D+00  0.000000D+00  0.500000D+00
      9  0.439958D-02  0.339329D-01  0.000000D+00  0.524906D+00
     10  0.508461D-02 -0.598328D-02  0.000000D+00  0.766691D-02  0.567035D+00
     11 -0.161630D-01  0.278373D+00  0.000000D+00  0.147243D+00 -0.379043D+00
     12  0.425258D-01  0.278373D+00  0.000000D+00  0.268004D+00  0.305823D+00
               11            12 
     11  0.429061D+00
     12 -0.255127D-02  0.429061D+00
 One-electron energy=-0.469450642919D+02
 FoF2E:  PMaxA= 5.67D-01S
 DA number   1 in FoFMSE:
                1             2             3             4             5 
      1  0.549936D+00
      2  0.000000D+00  0.500000D+00
      3 -0.339329D-01  0.000000D+00  0.524906D+00
      4  0.598328D-02  0.000000D+00  0.766691D-02  0.567035D+00
      5  0.278373D+00  0.000000D+00 -0.147243D+00  0.379043D+00  0.429061D+00
      6  0.278373D+00  0.000000D+00 -0.268004D+00 -0.305823D+00 -0.255127D-02
      7  0.165029D+00  0.000000D+00  0.249333D+00 -0.439641D-01  0.867140D-03
      8  0.000000D+00  0.500000D+00  0.000000D+00  0.000000D+00  0.000000D+00
      9 -0.249333D+00  0.000000D+00 -0.297532D+00  0.628114D-01  0.239521D-02
     10  0.439641D-01  0.000000D+00  0.628114D-01  0.476135D-01 -0.628272D-02
     11  0.867140D-03  0.000000D+00 -0.239521D-02  0.628272D-02  0.425258D-01
     12  0.867140D-03  0.000000D+00 -0.439958D-02 -0.508461D-02 -0.161630D-01
                6             7             8             9            10 
      6  0.429061D+00
      7  0.867140D-03  0.549936D+00
      8  0.000000D+00  0.000000D+00  0.500000D+00
      9  0.439958D-02  0.339329D-01  0.000000D+00  0.524906D+00
     10  0.508461D-02 -0.598328D-02  0.000000D+00  0.766691D-02  0.567035D+00
     11 -0.161630D-01  0.278373D+00  0.000000D+00  0.147243D+00 -0.379043D+00
     12  0.425258D-01  0.278373D+00  0.000000D+00  0.268004D+00  0.305823D+00
               11            12 
     11  0.429061D+00
     12 -0.255127D-02  0.429061D+00
 FoF2E:  FMaxA= 3.83D+00S
 ChkPGP:  NMat=1 NMatS=1 NMatT=0
 EA=  19.7840388112     0.000000000000E+00 0.000000000000E+00 0.000000000000E+00
 EB=  19.7840388112     0.000000000000E+00 0.000000000000E+00 0.000000000000E+00
 ETotA=  19.7840388112     ETotB=  19.7840388112    
 1/2 <PG(P)>=          19.784038811182
 IMat=  1 1/2 <PG(P)>=          19.784038811182
 IMat=  1 EOne=-0.469450642919D+02 ETwo= 0.197840388112D+02 Energy=-0.271610254807D+02
 1/2 <PG(P)>=          19.784038811182
 Fock matrix (alpha):
                1             2             3             4             5 
      1 -0.388536D+00
      2  0.000000D+00 -0.178748D+00
      3  0.518560D-02  0.000000D+00 -0.211200D+00
      4 -0.914361D-03  0.000000D+00  0.956188D-03 -0.205946D+00
      5 -0.305991D+00  0.000000D+00  0.110611D+00 -0.280721D+00 -0.141767D+00
      6 -0.305991D+00  0.000000D+00  0.199952D+00  0.225960D+00 -0.441233D-01
      7 -0.250716D+00  0.000000D+00 -0.268404D+00  0.473269D-01 -0.349213D-01
      8  0.000000D+00 -0.216503D+00  0.000000D+00  0.000000D+00  0.000000D+00
      9  0.268404D+00  0.000000D+00  0.208216D+00 -0.535251D-01  0.312134D-01
     10 -0.473269D-01  0.000000D+00 -0.535251D-01 -0.859020D-01 -0.216544D-01
     11 -0.349213D-01  0.000000D+00 -0.312134D-01  0.216544D-01 -0.121601D-01
     12 -0.349213D-01  0.000000D+00 -0.367372D-01 -0.967287D-02 -0.126099D-01
                6             7             8             9            10 
      6 -0.141767D+00
      7 -0.349213D-01 -0.388536D+00
      8  0.000000D+00  0.000000D+00 -0.178748D+00
      9  0.367372D-01 -0.518560D-02  0.000000D+00 -0.211200D+00
     10  0.967287D-02  0.914361D-03  0.000000D+00  0.956188D-03 -0.205946D+00
     11 -0.126099D-01 -0.305991D+00  0.000000D+00 -0.110611D+00  0.280721D+00
     12 -0.121601D-01 -0.305991D+00  0.000000D+00 -0.199952D+00 -0.225960D+00
               11            12 
     11 -0.141767D+00
     12 -0.441233D-01 -0.141767D+00
 Fock matrix (beta):
                1             2             3             4             5 
      1 -0.388536D+00
      2  0.000000D+00 -0.178748D+00
      3  0.518560D-02  0.000000D+00 -0.211200D+00
      4 -0.914361D-03  0.000000D+00  0.956188D-03 -0.205946D+00
      5 -0.305991D+00  0.000000D+00  0.110611D+00 -0.280721D+00 -0.141767D+00
      6 -0.305991D+00  0.000000D+00  0.199952D+00  0.225960D+00 -0.441233D-01
      7 -0.250716D+00  0.000000D+00 -0.268404D+00  0.473269D-01 -0.349213D-01
      8  0.000000D+00 -0.216503D+00  0.000000D+00  0.000000D+00  0.000000D+00
      9  0.268404D+00  0.000000D+00  0.208216D+00 -0.535251D-01  0.312134D-01
     10 -0.473269D-01  0.000000D+00 -0.535251D-01 -0.859020D-01 -0.216544D-01
     11 -0.349213D-01  0.000000D+00 -0.312134D-01  0.216544D-01 -0.121601D-01
     12 -0.349213D-01  0.000000D+00 -0.367372D-01 -0.967287D-02 -0.126099D-01
                6             7             8             9            10 
      6 -0.141767D+00
      7 -0.349213D-01 -0.388536D+00
      8  0.000000D+00  0.000000D+00 -0.178748D+00
      9  0.367372D-01 -0.518560D-02  0.000000D+00 -0.211200D+00
     10  0.967287D-02  0.914361D-03  0.000000D+00  0.956188D-03 -0.205946D+00
     11 -0.126099D-01 -0.305991D+00  0.000000D+00 -0.110611D+00  0.280721D+00
     12 -0.121601D-01 -0.305991D+00  0.000000D+00 -0.199952D+00 -0.225960D+00
               11            12 
     11 -0.141767D+00
     12 -0.441233D-01 -0.141767D+00
 E= 0.228850337820852E-01
 Alpha error matrix at iteration:
                1             2             3             4             5 
      1  0.000000D+00
      2  0.000000D+00  0.000000D+00
      3  0.000000D+00  0.000000D+00  0.000000D+00
      4  0.000000D+00  0.000000D+00  0.000000D+00  0.000000D+00
      5  0.000000D+00  0.000000D+00  0.000000D+00  0.000000D+00  0.000000D+00
      6  0.000000D+00  0.000000D+00  0.000000D+00  0.000000D+00  0.000000D+00
      7  0.000000D+00  0.000000D+00  0.000000D+00  0.000000D+00  0.000000D+00
      8  0.000000D+00  0.000000D+00  0.000000D+00  0.000000D+00  0.000000D+00
      9  0.000000D+00  0.000000D+00  0.000000D+00  0.000000D+00  0.000000D+00
     10  0.000000D+00  0.000000D+00  0.000000D+00  0.000000D+00  0.000000D+00
     11  0.000000D+00  0.000000D+00  0.000000D+00  0.000000D+00  0.000000D+00
     12  0.000000D+00  0.000000D+00  0.000000D+00  0.000000D+00  0.000000D+00
                6             7             8             9            10 
      6  0.000000D+00
      7  0.000000D+00  0.000000D+00
      8  0.000000D+00  0.000000D+00  0.000000D+00
      9  0.000000D+00  0.000000D+00  0.000000D+00  0.000000D+00
     10  0.000000D+00  0.000000D+00  0.000000D+00  0.000000D+00  0.000000D+00
     11  0.000000D+00  0.000000D+00  0.000000D+00  0.000000D+00  0.000000D+00
     12  0.000000D+00  0.000000D+00  0.000000D+00  0.000000D+00  0.000000D+00
               11            12 
     11  0.000000D+00
     12  0.000000D+00  0.000000D+00
 DIIS: error= 8.35D-10 at cycle   1 NSaved=   1.
 B matrix at iteration          1
                 1             2 
      1   0.000000D+00 -0.100000D+01
      2  -0.100000D+01 -0.186947D-16
 Tr matrix at iteration          1
                 1             2 
      1   0.000000D+00  0.000000D+00
      2   0.000000D+00 -0.368849D+01
 BE matrix at iteration          1
                 1             2 
      1   0.000000D+00 -0.100000D+01
      2  -0.100000D+01  0.000000D+00
 NSaved= 1 IEnMin= 1 EnMin= 0.228850337820852E-01 IErMin= 1 ErrMin= 8.35D-10
 ErrMax= 8.35D-10  0.00D+00 EMaxC= 1.00D-01 BMatC= 1.87D-17 BMatP= 1.87D-17
 IDIUse=1 WtCom= 1.00D+00 WtEn= 0.00D+00
 Coeff-Com:  0.100D+01
 Coeff-En:   0.000D+00
 Coeff:      0.100D+01
 NewF-IndFok=    0
 NewF-Coef=   1.00D+00
 Extrapolated FA at iteration:
                1             2             3             4             5 
      1 -0.388536D+00
      2  0.000000D+00 -0.178748D+00
      3  0.518560D-02  0.000000D+00 -0.211200D+00
      4 -0.914361D-03  0.000000D+00  0.956188D-03 -0.205946D+00
      5 -0.305991D+00  0.000000D+00  0.110611D+00 -0.280721D+00 -0.141767D+00
      6 -0.305991D+00  0.000000D+00  0.199952D+00  0.225960D+00 -0.441233D-01
      7 -0.250716D+00  0.000000D+00 -0.268404D+00  0.473269D-01 -0.349213D-01
      8  0.000000D+00 -0.216503D+00  0.000000D+00  0.000000D+00  0.000000D+00
      9  0.268404D+00  0.000000D+00  0.208216D+00 -0.535251D-01  0.312134D-01
     10 -0.473269D-01  0.000000D+00 -0.535251D-01 -0.859020D-01 -0.216544D-01
     11 -0.349213D-01  0.000000D+00 -0.312134D-01  0.216544D-01 -0.121601D-01
     12 -0.349213D-01  0.000000D+00 -0.367372D-01 -0.967287D-02 -0.126099D-01
                6             7             8             9            10 
      6 -0.141767D+00
      7 -0.349213D-01 -0.388536D+00
      8  0.000000D+00  0.000000D+00 -0.178748D+00
      9  0.367372D-01 -0.518560D-02  0.000000D+00 -0.211200D+00
     10  0.967287D-02  0.914361D-03  0.000000D+00  0.956188D-03 -0.205946D+00
     11 -0.126099D-01 -0.305991D+00  0.000000D+00 -0.110611D+00  0.280721D+00
     12 -0.121601D-01 -0.305991D+00  0.000000D+00 -0.199952D+00 -0.225960D+00
               11            12 
     11 -0.141767D+00
     12 -0.441233D-01 -0.141767D+00
 NOrbs=    12 LenY=   104796098 NE2=     8733008 LScr= 7
 IAlgDg is returning  0.
 DiagDN:  BShift=  1.00D+00
 Alpha MO coefficients at cycle    1:
                 1             2             3             4             5 
      1   0.597898D+00  0.438695D+00  0.000000D+00 -0.334958D-03  0.000000D+00
      2   0.000000D+00  0.000000D+00  0.000000D+00  0.000000D+00  0.000000D+00
      3   0.180472D+00 -0.322851D+00  0.972334D-01  0.609069D+00  0.876621D-01
      4  -0.318221D-01  0.569273D-01  0.551438D+00 -0.107395D+00  0.497156D+00
      5   0.233382D+00  0.316286D+00  0.305337D+00 -0.242386D+00  0.350108D+00
      6   0.233382D+00  0.316286D+00 -0.305337D+00 -0.242386D+00 -0.350108D+00
      7   0.597898D+00 -0.438695D+00  0.000000D+00 -0.334956D-03  0.000000D+00
      8   0.000000D+00  0.000000D+00  0.000000D+00  0.000000D+00  0.000000D+00
      9  -0.180472D+00 -0.322851D+00  0.972334D-01 -0.609069D+00 -0.876621D-01
     10   0.318221D-01  0.569273D-01  0.551438D+00  0.107395D+00 -0.497156D+00
     11   0.233382D+00 -0.316286D+00 -0.305337D+00 -0.242386D+00  0.350108D+00
     12   0.233382D+00 -0.316286D+00  0.305337D+00 -0.242386D+00 -0.350108D+00
                 6             7             8             9            10 
      1   0.000000D+00  0.000000D+00  0.000000D+00  0.594486D-01  0.377515D+00
      2   0.707107D+00  0.707107D+00  0.000000D+00  0.000000D+00  0.000000D+00
      3   0.000000D+00  0.000000D+00  0.749833D-01  0.585804D+00 -0.285287D+00
      4   0.000000D+00  0.000000D+00  0.425252D+00 -0.103293D+00  0.503039D-01
      5   0.000000D+00  0.000000D+00 -0.395941D+00  0.267049D+00 -0.369840D+00
      6   0.000000D+00  0.000000D+00  0.395941D+00  0.267049D+00 -0.369840D+00
      7   0.000000D+00  0.000000D+00  0.000000D+00 -0.594486D-01  0.377515D+00
      8   0.707107D+00 -0.707107D+00  0.000000D+00  0.000000D+00  0.000000D+00
      9   0.000000D+00  0.000000D+00  0.749833D-01  0.585804D+00  0.285287D+00
     10   0.000000D+00  0.000000D+00  0.425252D+00 -0.103293D+00 -0.503039D-01
     11   0.000000D+00  0.000000D+00  0.395941D+00 -0.267049D+00 -0.369840D+00
     12   0.000000D+00  0.000000D+00 -0.395941D+00 -0.267049D+00 -0.369840D+00
                11            12 
      1   0.551374D+00  0.000000D+00
      2   0.000000D+00  0.000000D+00
      3   0.193712D+00  0.859781D-01
      4  -0.341569D-01  0.487605D+00
      5  -0.280443D+00 -0.356966D+00
      6  -0.280443D+00  0.356966D+00
      7  -0.551373D+00  0.000000D+00
      8   0.000000D+00  0.000000D+00
      9   0.193712D+00 -0.859779D-01
     10  -0.341564D-01 -0.487605D+00
     11   0.280443D+00 -0.356966D+00
     12   0.280443D+00  0.356966D+00
 Alpha density matrix  at cycle    1:
                1             2             3             4             5 
      1  0.549936D+00
      2  0.000000D+00  0.500000D+00
      3 -0.339329D-01  0.000000D+00  0.524906D+00
      4  0.598328D-02  0.000000D+00  0.766691D-02  0.567035D+00
      5  0.278373D+00  0.000000D+00 -0.147243D+00  0.379043D+00  0.429061D+00
      6  0.278373D+00  0.000000D+00 -0.268004D+00 -0.305823D+00 -0.255127D-02
      7  0.165029D+00  0.000000D+00  0.249333D+00 -0.439641D-01  0.867140D-03
      8  0.000000D+00  0.500000D+00  0.000000D+00  0.000000D+00  0.000000D+00
      9 -0.249333D+00  0.000000D+00 -0.297532D+00  0.628114D-01  0.239521D-02
     10  0.439641D-01  0.000000D+00  0.628114D-01  0.476135D-01 -0.628272D-02
     11  0.867140D-03  0.000000D+00 -0.239521D-02  0.628272D-02  0.425258D-01
     12  0.867139D-03  0.000000D+00 -0.439958D-02 -0.508461D-02 -0.161630D-01
                6             7             8             9            10 
      6  0.429061D+00
      7  0.867139D-03  0.549936D+00
      8  0.000000D+00  0.000000D+00  0.500000D+00
      9  0.439958D-02  0.339329D-01  0.000000D+00  0.524906D+00
     10  0.508461D-02 -0.598328D-02  0.000000D+00  0.766691D-02  0.567035D+00
     11 -0.161630D-01  0.278373D+00  0.000000D+00  0.147243D+00 -0.379043D+00
     12  0.425258D-01  0.278373D+00  0.000000D+00  0.268004D+00  0.305823D+00
               11            12 
     11  0.429061D+00
     12 -0.255127D-02  0.429061D+00
 RMSDP=5.51D-10 MaxDP=2.07D-09              OVMax= 0.00D+00

 Cycle   2  Pass 2  IDiag  1:
 NOrbs=    12 LenY=   104796098 NE2=     8733008 LScr= 7
 IAlgDg is returning  0.
 DiagDN:  BShift=  1.00D+00
 Alpha MO coefficients at cycle    2:
                 1             2             3             4             5 
      1   0.597898D+00  0.438695D+00  0.000000D+00 -0.334958D-03  0.000000D+00
      2   0.000000D+00  0.000000D+00  0.000000D+00  0.000000D+00  0.000000D+00
      3   0.180472D+00 -0.322851D+00  0.972334D-01  0.609069D+00  0.876621D-01
      4  -0.318221D-01  0.569273D-01  0.551438D+00 -0.107395D+00  0.497156D+00
      5   0.233382D+00  0.316286D+00  0.305337D+00 -0.242386D+00  0.350108D+00
      6   0.233382D+00  0.316286D+00 -0.305337D+00 -0.242386D+00 -0.350108D+00
      7   0.597898D+00 -0.438695D+00  0.000000D+00 -0.334956D-03  0.000000D+00
      8   0.000000D+00  0.000000D+00  0.000000D+00  0.000000D+00  0.000000D+00
      9  -0.180472D+00 -0.322851D+00  0.972334D-01 -0.609069D+00 -0.876621D-01
     10   0.318221D-01  0.569273D-01  0.551438D+00  0.107395D+00 -0.497156D+00
     11   0.233382D+00 -0.316286D+00 -0.305337D+00 -0.242386D+00  0.350108D+00
     12   0.233382D+00 -0.316286D+00  0.305337D+00 -0.242386D+00 -0.350108D+00
                 6             7             8             9            10 
      1   0.000000D+00  0.000000D+00  0.000000D+00  0.594486D-01  0.377515D+00
      2   0.707107D+00  0.707107D+00  0.000000D+00  0.000000D+00  0.000000D+00
      3   0.000000D+00  0.000000D+00  0.749833D-01  0.585804D+00 -0.285287D+00
      4   0.000000D+00  0.000000D+00  0.425252D+00 -0.103293D+00  0.503039D-01
      5   0.000000D+00  0.000000D+00 -0.395941D+00  0.267049D+00 -0.369840D+00
      6   0.000000D+00  0.000000D+00  0.395941D+00  0.267049D+00 -0.369840D+00
      7   0.000000D+00  0.000000D+00  0.000000D+00 -0.594486D-01  0.377515D+00
      8   0.707107D+00 -0.707107D+00  0.000000D+00  0.000000D+00  0.000000D+00
      9   0.000000D+00  0.000000D+00  0.749833D-01  0.585804D+00  0.285287D+00
     10   0.000000D+00  0.000000D+00  0.425252D+00 -0.103293D+00 -0.503039D-01
     11   0.000000D+00  0.000000D+00  0.395941D+00 -0.267049D+00 -0.369840D+00
     12   0.000000D+00  0.000000D+00 -0.395941D+00 -0.267049D+00 -0.369840D+00
                11            12 
      1   0.551374D+00  0.000000D+00
      2   0.000000D+00  0.000000D+00
      3   0.193712D+00  0.859781D-01
      4  -0.341569D-01  0.487605D+00
      5  -0.280443D+00 -0.356966D+00
      6  -0.280443D+00  0.356966D+00
      7  -0.551373D+00  0.000000D+00
      8   0.000000D+00  0.000000D+00
      9   0.193712D+00 -0.859779D-01
     10  -0.341564D-01 -0.487605D+00
     11   0.280443D+00 -0.356966D+00
     12   0.280443D+00  0.356966D+00
 Alpha density matrix  at cycle    2:
                1             2             3             4             5 
      1  0.549936D+00
      2  0.000000D+00  0.500000D+00
      3 -0.339329D-01  0.000000D+00  0.524906D+00
      4  0.598328D-02  0.000000D+00  0.766691D-02  0.567035D+00
      5  0.278373D+00  0.000000D+00 -0.147243D+00  0.379043D+00  0.429061D+00
      6  0.278373D+00  0.000000D+00 -0.268004D+00 -0.305823D+00 -0.255127D-02
      7  0.165029D+00  0.000000D+00  0.249333D+00 -0.439641D-01  0.867140D-03
      8  0.000000D+00  0.500000D+00  0.000000D+00  0.000000D+00  0.000000D+00
      9 -0.249333D+00  0.000000D+00 -0.297532D+00  0.628114D-01  0.239521D-02
     10  0.439641D-01  0.000000D+00  0.628114D-01  0.476135D-01 -0.628272D-02
     11  0.867140D-03  0.000000D+00 -0.239521D-02  0.628272D-02  0.425258D-01
     12  0.867139D-03  0.000000D+00 -0.439958D-02 -0.508461D-02 -0.161630D-01
                6             7             8             9            10 
      6  0.429061D+00
      7  0.867139D-03  0.549936D+00
      8  0.000000D+00  0.000000D+00  0.500000D+00
      9  0.439958D-02  0.339329D-01  0.000000D+00  0.524906D+00
     10  0.508461D-02 -0.598328D-02  0.000000D+00  0.766691D-02  0.567035D+00
     11 -0.161630D-01  0.278373D+00  0.000000D+00  0.147243D+00 -0.379043D+00
     12  0.425258D-01  0.278373D+00  0.000000D+00  0.268004D+00  0.305823D+00
               11            12 
     11  0.429061D+00
     12 -0.255127D-02  0.429061D+00
 SCF Done:  E(RPM7) =  0.228850337821E-01 A.U. after    2 cycles
            NFock=  1  Conv=0.55D-09     -V/T= 1.0013
 KE=-1.742006992030D+01 PE=-2.952499437161D+01 EE= 1.978403881118D+01
 Alpha MOs:
                           1         2         3         4         5
     Eigenvalues --    -0.98732  -0.73629  -0.59902  -0.52543  -0.44519
   1                    0.59790   0.43869   0.00000  -0.00033   0.00000
   2                    0.00000   0.00000   0.00000   0.00000   0.00000
   3                    0.18047  -0.32285   0.09723   0.60907   0.08766
   4                   -0.03182   0.05693   0.55144  -0.10740   0.49716
   5                    0.23338   0.31629   0.30534  -0.24239   0.35011
   6                    0.23338   0.31629  -0.30534  -0.24239  -0.35011
   7                    0.59790  -0.43869   0.00000  -0.00033   0.00000
   8                    0.00000   0.00000   0.00000   0.00000   0.00000
   9                   -0.18047  -0.32285   0.09723  -0.60907  -0.08766
  10                    0.03182   0.05693   0.55144   0.10740  -0.49716
  11                    0.23338  -0.31629  -0.30534  -0.24239   0.35011
  12                    0.23338  -0.31629   0.30534  -0.24239  -0.35011
                           6         7         8         9        10
     Eigenvalues --    -0.39525   0.03775   0.19981   0.20660   0.23381
   1                    0.00000   0.00000   0.00000   0.05945   0.37751
   2                    0.70711   0.70711   0.00000   0.00000   0.00000
   3                    0.00000   0.00000   0.07498   0.58580  -0.28529
   4                    0.00000   0.00000   0.42525  -0.10329   0.05030
   5                    0.00000   0.00000  -0.39594   0.26705  -0.36984
   6                    0.00000   0.00000   0.39594   0.26705  -0.36984
   7                    0.00000   0.00000   0.00000  -0.05945   0.37751
   8                    0.70711  -0.70711   0.00000   0.00000   0.00000
   9                    0.00000   0.00000   0.07498   0.58580   0.28529
  10                    0.00000   0.00000   0.42525  -0.10329  -0.05030
  11                    0.00000   0.00000   0.39594  -0.26705  -0.36984
  12                    0.00000   0.00000  -0.39594  -0.26705  -0.36984
                          11        12
     Eigenvalues --     0.23703   0.23756
   1                    0.55137   0.00000
   2                    0.00000   0.00000
   3                    0.19371   0.08598
   4                   -0.03416   0.48760
   5                   -0.28044  -0.35697
   6                   -0.28044   0.35697
   7                   -0.55137   0.00000
   8                    0.00000   0.00000
   9                    0.19371  -0.08598
  10                   -0.03416  -0.48760
  11                    0.28044  -0.35697
  12                    0.28044   0.35697
 Final density matrix:
                1             2             3             4             5 
      1  0.549936D+00
      2  0.000000D+00  0.500000D+00
      3 -0.339329D-01  0.000000D+00  0.524906D+00
      4  0.598328D-02  0.000000D+00  0.766691D-02  0.567035D+00
      5  0.278373D+00  0.000000D+00 -0.147243D+00  0.379043D+00  0.429061D+00
      6  0.278373D+00  0.000000D+00 -0.268004D+00 -0.305823D+00 -0.255127D-02
      7  0.165029D+00  0.000000D+00  0.249333D+00 -0.439641D-01  0.867140D-03
      8  0.000000D+00  0.500000D+00  0.000000D+00  0.000000D+00  0.000000D+00
      9 -0.249333D+00  0.000000D+00 -0.297532D+00  0.628114D-01  0.239521D-02
     10  0.439641D-01  0.000000D+00  0.628114D-01  0.476135D-01 -0.628272D-02
     11  0.867140D-03  0.000000D+00 -0.239521D-02  0.628272D-02  0.425258D-01
     12  0.867139D-03  0.000000D+00 -0.439958D-02 -0.508461D-02 -0.161630D-01
                6             7             8             9            10 
      6  0.429061D+00
      7  0.867139D-03  0.549936D+00
      8  0.000000D+00  0.000000D+00  0.500000D+00
      9  0.439958D-02  0.339329D-01  0.000000D+00  0.524906D+00
     10  0.508461D-02 -0.598328D-02  0.000000D+00  0.766691D-02  0.567035D+00
     11 -0.161630D-01  0.278373D+00  0.000000D+00  0.147243D+00 -0.379043D+00
     12  0.425258D-01  0.278373D+00  0.000000D+00  0.268004D+00  0.305823D+00
               11            12 
     11  0.429061D+00
     12 -0.255127D-02  0.429061D+00
 Total density matrix:
                1             2             3             4             5 
      1  0.109987D+01
      2  0.000000D+00  0.100000D+01
      3 -0.678657D-01  0.000000D+00  0.104981D+01
      4  0.119666D-01  0.000000D+00  0.153338D-01  0.113407D+01
      5  0.556746D+00  0.000000D+00 -0.294487D+00  0.758085D+00  0.858123D+00
      6  0.556746D+00  0.000000D+00 -0.536008D+00 -0.611647D+00 -0.510253D-02
      7  0.330059D+00  0.000000D+00  0.498666D+00 -0.879282D-01  0.173428D-02
      8  0.000000D+00  0.100000D+01  0.000000D+00  0.000000D+00  0.000000D+00
      9 -0.498666D+00  0.000000D+00 -0.595065D+00  0.125623D+00  0.479041D-02
     10  0.879282D-01  0.000000D+00  0.125623D+00  0.952270D-01 -0.125654D-01
     11  0.173428D-02  0.000000D+00 -0.479042D-02  0.125654D-01  0.850517D-01
     12  0.173428D-02  0.000000D+00 -0.879915D-02 -0.101692D-01 -0.323261D-01
                6             7             8             9            10 
      6  0.858123D+00
      7  0.173428D-02  0.109987D+01
      8  0.000000D+00  0.000000D+00  0.100000D+01
      9  0.879915D-02  0.678657D-01  0.000000D+00  0.104981D+01
     10  0.101692D-01 -0.119666D-01  0.000000D+00  0.153338D-01  0.113407D+01
     11 -0.323261D-01  0.556746D+00  0.000000D+00  0.294487D+00 -0.758085D+00
     12  0.850517D-01  0.556746D+00  0.000000D+00  0.536008D+00  0.611647D+00
               11            12 
     11  0.858123D+00
     12 -0.510253D-02  0.858123D+00
 Leave Link  502 at Tue May 10 12:13:47 2022, MaxMem=   104857600 cpu:               0.0 elap:               0.0

 **********************************************************************

            Population analysis using the SCF Density.

 **********************************************************************

 Alpha  occ. eigenvalues --   -0.98732  -0.73629  -0.59902  -0.52543  -0.44519
 Alpha  occ. eigenvalues --   -0.39525
 Alpha virt. eigenvalues --    0.03775   0.19981   0.20660   0.23381   0.23703
 Alpha virt. eigenvalues --    0.23756
          Condensed to atoms (all electrons):
               1          2          3          4          5          6
     1  C    4.283754   0.000000   0.000000   0.000000   0.000000   0.000000
     2  H    0.000000   0.858123   0.000000   0.000000   0.000000   0.000000
     3  H    0.000000   0.000000   0.858123   0.000000   0.000000   0.000000
     4  C    0.000000   0.000000   0.000000   4.283754   0.000000   0.000000
     5  H    0.000000   0.000000   0.000000   0.000000   0.858123   0.000000
     6  H    0.000000   0.000000   0.000000   0.000000   0.000000   0.858123
 Mulliken charges:
               1
     1  C   -0.283754
     2  H    0.141877
     3  H    0.141877
     4  C   -0.283754
     5  H    0.141877
     6  H    0.141877
 Sum of Mulliken charges =   0.00000
 Mulliken charges with hydrogens summed into heavy atoms:
               1
     1  C    0.000000
     4  C    0.000000
 Charge=              0.0000 electrons
 Dipole moment (field-independent basis, Debye):
    X=              0.0000    Y=              0.0000    Z=              0.0000  Tot=              0.0000
 N-N= 2.718391051451D+01 E-N=-2.952499437537D+01  KE=-1.742006992030D+01

 Test job not archived.
 1|1|UNPC-DESKTOP-ATGL590|SP|RPM7|ZDO|C2H4|ICCAS|10-May-2022|0||# PM7 I
 Op(3/32=2,5/33=3) NoSymmetry Guess=Read Geom=AllCheck||monomer optimiz
 ed||0,1|C,0,0.,-0.45386215,3.71529381|H,0,0.,-0.85603195,4.72498542|H,
 0,0.,-1.17711302,2.90404424|C,0,0.,0.85386218,3.48470674|H,0,0.,1.2560
 3199,2.47501513|H,0,0.,1.57711305,4.29595631||Version=EM64W-G16RevB.01
 |HF=0.022885|RMSD=5.515e-010|Dipole=0.,0.,0.|PG=C02H [SGH(C2H4)]||@


 HE THAT FOLLOWS NATURE IS NEVER LOST.

                             -- BACON
 Job cpu time:       0 days  0 hours  0 minutes  1.0 seconds.
 Elapsed time:       0 days  0 hours  0 minutes  0.3 seconds.
 File lengths (MBytes):  RWF=      6 Int=      0 D2E=      0 Chk=      2 Scr=      1
 Normal termination of Gaussian 16 at Tue May 10 12:13:47 2022.
